ITEM: TIMESTEP
2000000
ITEM: NUMBER OF ATOMS
896
ITEM: BOX BOUNDS pp pp ff
-1.7153631884999999e+01 1.8003017117999999e+01
-1.7855467918999999e+01 1.7553981017000002e+01
-3.4618715923000003e+01 3.4618715923000003e+01
ITEM: ATOMS q 
0 
0 
0 
0 
0 
0 
0 
0 
0 
0 
0 
0 
0 
0 
0 
0 
0 
0 
0 
0 
0 
0 
0 
0 
0 
0 
0 
0 
0 
0 
0 
0 
0 
0 
0 
0 
0 
0 
0 
0 
0 
0 
0 
0 
0 
0 
0 
0 
0 
0 
0 
0 
0 
0 
0 
0 
0 
0 
0 
0 
0 
0 
0 
0 
0 
0 
0 
0 
0 
0 
0 
0 
0 
0 
0 
0 
0 
0 
0 
0 
0 
0 
0 
0 
0 
0 
0 
0 
0 
0 
0 
0 
0 
0 
0 
0 
0 
0 
0 
0 
0 
0 
0 
0 
0 
0 
0 
0 
0 
0 
0 
0 
0 
0 
0 
0 
0 
0 
0 
0 
0 
0 
0 
0 
0 
0 
0 
0 
0 
0 
0 
0 
0 
0 
0 
0 
0 
0 
0 
0 
0 
0 
0 
0 
0 
0 
0 
0 
0 
0 
0 
0 
0 
0 
0 
0 
0 
0 
0 
0 
0 
0 
0 
0 
0 
0 
0 
0 
0 
0 
0 
0 
0 
0 
0 
0 
0 
0 
0 
0 
0 
0 
0 
0 
0 
0 
0 
0 
0 
0 
0 
0 
0 
0 
0 
0 
0 
0 
0 
0 
0 
0 
0 
0 
0 
0 
0 
0 
0 
0 
0 
0 
0 
0 
0 
0 
0 
0 
0 
0 
0 
0 
0 
0 
0 
0 
0 
0 
0 
0 
0 
0 
0 
0 
0 
0 
0 
0 
0 
0 
0 
0 
0 
0 
0 
0 
0 
0 
0 
0 
0 
0 
0 
0 
0 
0 
0 
0 
0 
0 
0 
0 
0 
0 
0 
0 
0 
0 
0 
0 
0 
0 
0 
0 
0 
0 
0 
0 
0 
0 
0 
0 
0 
0 
0 
0 
0 
0 
0 
0 
0 
0 
0 
0 
0 
0 
0 
0 
0 
0 
0 
0 
0 
0 
0 
0 
0 
0 
0 
0 
0 
0 
0 
0 
0 
0 
0 
0 
0 
0 
0 
0 
0 
0 
0 
0 
0 
0 
0 
0 
0 
0 
0 
0 
0 
0 
0 
0 
0 
0 
0 
0 
0 
0 
0 
0 
0 
0 
0 
0 
0 
0 
0 
0 
0 
0 
0 
0 
0 
0 
0 
0 
0 
0 
0 
0 
0 
0 
0 
0 
0 
0 
0 
0 
0 
0 
0 
0 
0 
0 
0 
0 
0 
0 
0 
0 
0 
0 
0 
0 
0 
0 
0 
0 
0 
0 
0 
0 
0 
0 
0 
0 
0 
0 
0 
0 
0 
0 
0 
0 
0 
0 
0 
0 
0 
0 
0 
0 
0 
0 
0 
0 
0 
0 
0 
0 
0 
0 
0 
0 
0 
0 
0 
0 
0 
0 
0 
0 
0 
0 
0 
0 
0 
0 
0 
0 
0 
0 
0 
0 
0 
0 
0 
0 
0 
0 
0 
0 
0 
0 
0 
0 
0 
0 
0 
0 
0 
0 
0 
0 
0 
0 
0 
0 
0 
0 
0 
0 
0 
0 
0 
0 
0 
0 
0 
0 
0 
0 
0 
0 
0 
0 
0 
0 
0 
0 
0 
0 
0 
0 
0 
0 
0 
0 
0 
0 
0 
0 
0 
0 
0 
0 
0 
0 
0 
0 
0 
0 
0 
0 
0 
0 
0 
0 
0 
0 
0 
0 
0 
0 
0 
0 
0 
0 
0 
0 
0 
0 
0 
0 
0 
0 
0 
0 
0 
0 
0 
0 
0 
0 
0 
0 
0 
0 
0 
0 
0 
0 
0 
0 
0 
0 
0 
0 
0 
0 
0 
0 
0 
0 
0 
0 
0 
0 
0 
0 
0 
0 
0 
0 
0 
0 
0 
0 
0 
0 
0 
0 
0 
0 
0 
0 
0 
0 
0 
0 
0 
0 
0 
0 
0 
0 
0 
0 
0 
0 
0 
0 
0 
0 
0 
0 
0 
0 
0 
0 
0 
0 
0 
0 
0 
0 
0 
0 
0 
0 
0 
0 
0 
0 
0 
0 
0 
0 
0 
0 
0 
0 
0 
0 
0 
0 
0 
0 
0 
0 
0 
0 
0 
0 
0 
0 
0 
0 
0 
0 
0 
0 
0 
0 
0 
0 
0 
0 
0 
0 
0 
0 
0 
0 
0 
0 
0 
0 
0 
0 
0 
0 
0 
0 
0 
0 
0 
0 
0 
0 
0 
0 
0 
0 
0 
0 
0 
0 
0 
0 
0 
0 
0 
0 
0 
0 
0 
0 
0 
0 
0 
0 
0 
0 
0 
0 
0 
0 
0 
0 
0 
0 
0 
0 
0 
0 
0 
0 
0 
0 
0 
0 
0 
0 
0 
0 
0 
0 
0 
0 
0 
0 
0 
0 
0 
0 
0 
0 
0 
0 
0 
0 
0 
0 
0 
0 
0 
0 
0 
0 
0 
0 
0 
0 
0 
0 
0 
0 
0 
0 
0 
0 
0 
0 
0 
0 
0 
0 
0 
0 
0 
0 
0 
0 
0 
0 
0 
0 
0 
0 
0 
0 
0 
0 
0 
0 
0 
0 
0 
0 
0 
0 
0 
0 
0 
0 
0 
0 
0 
0 
0 
0 
0 
0 
0 
0 
0 
0 
0 
0 
0 
0 
0 
0 
0 
0 
0 
0 
0 
0 
0 
0 
0 
0 
0 
0 
0 
0 
0 
0 
0 
0 
0 
0 
0 
0 
0 
0 
0 
0 
0 
0 
0 
0 
0 
0 
0 
0 
0 
0 
0 
0 
0 
0 
0 
0 
0 
0 
0 
0 
0 
0 
0 
0 
0 
0 
0 
0 
0 
0 
0 
0 
0 
0 
0 
0 
0 
0 
0 
0 
0 
0 
0 
0 
0 
0 
0 
0 
0 
0 
ITEM: TIMESTEP
2200000
ITEM: NUMBER OF ATOMS
896
ITEM: BOX BOUNDS pp pp ff
-1.7153631884999999e+01 1.8003017117999999e+01
-1.7855467918999999e+01 1.7553981017000002e+01
-3.4618715923000003e+01 3.4618715923000003e+01
ITEM: ATOMS q 
-0.00159205 
-1.26444e-05 
-0.000318802 
-0.00404803 
1.54137e-05 
0.00013129 
-0.000355465 
-0.000362393 
-0.000334834 
-0.00540193 
-0.000115757 
-0.00178314 
-3.70204e-05 
-0.000312195 
-0.0024307 
-0.000413041 
0.000128815 
-3.90431e-05 
-6.99733e-05 
-5.22974e-05 
3.86877e-05 
0.00538975 
-0.00651201 
5.41317e-05 
-0.000115294 
7.84173e-05 
0.000465596 
-0.004106 
-0.0111543 
-0.012036 
0.00514853 
-0.00462179 
-0.00497143 
-0.00294069 
0.00769049 
0.00171318 
-0.000863436 
0.00184188 
-0.00629543 
6.59494e-05 
0.00982753 
0.00624064 
0.000369122 
0.00530425 
0.00429515 
1.21137e-05 
-0.00270263 
-0.00486998 
-0.0058622 
-0.00985876 
9.4589e-05 
7.41892e-05 
-3.1425e-05 
-2.04926e-05 
-7.11872e-05 
7.63644e-05 
1.8772e-05 
-4.04868e-05 
-0.000261465 
-9.89811e-05 
-3.7191e-05 
1.34296e-05 
-0.000200486 
-0.000263587 
-0.000279296 
-6.81793e-05 
-0.000207051 
-0.00025446 
0.000152335 
7.40694e-05 
9.38219e-06 
-0.00179282 
0.0064857 
0.00194334 
-0.00186208 
0.000105216 
0.00623605 
0.00422112 
0.00433117 
0.00569921 
0.00403239 
0.00549626 
0.00684986 
0.00528093 
-0.00850087 
0.00172074 
0.00182739 
-0.000145115 
-0.0115393 
-0.0111949 
-0.00189056 
-0.00199297 
-6.39513e-05 
-0.00698621 
-0.0179713 
-0.008472 
0.00638124 
0.00493565 
0.00443257 
0.0072703 
0.00284259 
0.0067233 
0.00781442 
0.00383447 
-0.000143687 
0.00328354 
0.00153584 
-0.00182251 
-0.000426915 
-0.000249082 
-0.000106502 
-0.00014667 
-0.000369284 
-0.000339273 
-0.000304126 
-0.000328714 
-7.13884e-05 
-0.000205924 
-0.000283273 
-0.00023709 
8.43625e-05 
7.73232e-06 
-0.000107978 
-7.05577e-05 
3.4119e-06 
0.000212876 
0.000185688 
-0.000306204 
-0.000157426 
-8.8784e-05 
-0.000284771 
-0.000326359 
-0.000259437 
-9.35497e-05 
-0.000187645 
-0.000154404 
0.000843191 
-7.28895e-06 
0.00424107 
0.00103878 
0.00506632 
0.00766264 
0.00511303 
0.00330094 
0.00352118 
0.00110885 
-0.00300999 
0.003044 
-0.00234996 
-0.0083968 
0.00390454 
0.00369843 
0.00344771 
-0.00021408 
0.00368268 
0.00500006 
0.00291394 
0.00473765 
0.00166097 
0.0031217 
0.00265124 
0.00319247 
0.00106443 
0.00466001 
0.00389454 
-0.000281463 
-0.000183427 
9.49422e-05 
-0.000280515 
-0.00028947 
-0.000268131 
-0.000296506 
-0.00019445 
-0.000270052 
-0.000280324 
-0.000252743 
4.72169e-05 
-7.4868e-05 
-0.000130362 
-0.000148113 
-0.000260442 
-0.000277321 
-0.000266104 
-0.00023096 
-0.00028259 
-0.000270597 
-0.000255974 
-0.000319494 
-0.000267264 
-0.000284365 
-0.000323768 
-0.000333215 
0.00187121 
7.92657e-05 
-0.000345655 
-0.00610731 
-0.000363388 
0.00510918 
-0.000123442 
4.30741e-05 
0.00624878 
0.00415678 
0.00648068 
-0.013236 
0.00297343 
-0.000111238 
-9.95371e-05 
-0.00336662 
-0.000192759 
-5.9884e-05 
0.00327908 
0.000240867 
4.25337e-05 
0.00523425 
-0.000184266 
-0.00300896 
0.000139937 
0.00307739 
-0.0056492 
0.00200686 
-0.0115765 
-9.16682e-05 
-0.00017106 
-0.00018177 
-0.000353097 
-0.000216565 
-0.00029655 
0.00430827 
-0.00355525 
-0.000239486 
-0.00712486 
-0.000465339 
-0.000501288 
0.00107766 
-0.000397223 
-0.000166664 
-0.000522366 
-0.000367747 
-0.000512164 
-0.000242839 
-0.000412813 
0.0152737 
0.00183982 
0.0147904 
0.0067253 
0.00480322 
-0.000316379 
-0.00260555 
0.0136869 
-0.000396273 
0.00773467 
0.00354674 
0.0112251 
-0.000320129 
-0.000515628 
0.00407109 
0.00576742 
0.0022253 
0.00332334 
0.00258124 
0.00778837 
0.00440898 
0.00854204 
0.00914623 
-0.00515418 
-0.000990067 
-0.00195496 
-0.00461221 
0.00725465 
-0.00578433 
-0.00582584 
-0.00103585 
0.00739283 
0.00976425 
0.00467555 
0.00211721 
0.00182445 
-0.000168975 
0.00306912 
-0.000243206 
-0.000258582 
-0.000147745 
-7.52411e-05 
-0.000353238 
-0.000288176 
-0.000208306 
-0.000302406 
-0.000377218 
-0.000416958 
-0.000430435 
-0.000468348 
-3.98568e-05 
-9.11342e-05 
-0.000132193 
-8.13164e-05 
-0.000196713 
-4.86373e-05 
-7.52762e-05 
-0.000174392 
-0.000431746 
-0.000308604 
-0.000274612 
-0.00032751 
0.00426948 
0.0109204 
0.00530819 
0.0032133 
0.00259722 
0.000859236 
0.00703959 
0.00803204 
0.01033 
0.00186353 
0.00577574 
0.00698091 
0.00304048 
0.0025062 
0.00347886 
0.0083877 
0.00814135 
0.00949815 
0.0084751 
0.0078116 
0.00970614 
0.00856438 
0.00620217 
0.00810237 
0.00764327 
0.0062064 
0.0018335 
0.00553874 
0.00809865 
0.0078284 
0.00678419 
0.00571429 
0.00135479 
-0.00255903 
0.00272432 
-0.000380518 
-0.000381857 
-0.000445928 
-0.00047086 
-0.000406577 
-0.000438168 
-0.000466756 
-0.000497478 
-0.00032388 
-0.000412014 
-0.000463277 
-0.000447745 
-0.000185728 
-0.000305878 
-0.0003732 
-0.000330357 
-0.000492701 
-0.000448248 
-0.000372781 
-0.000367744 
-0.000463308 
-0.00046542 
-0.000384274 
-0.000282107 
-0.000410231 
-0.000394636 
-0.000281066 
-0.000223829 
-0.00036225 
-0.000381613 
-0.000311362 
-0.000317462 
0.00335633 
-0.00715075 
-0.00452189 
-0.00210772 
-0.00254819 
0.00326185 
0.00612556 
0.0062718 
0.00787977 
0.00145442 
-0.00347482 
-0.00388553 
-0.00215788 
0.00435868 
0.00216625 
0.00270315 
0.00915615 
0.0107333 
0.00732056 
0.00596544 
0.00820248 
-7.23409e-05 
-0.000121524 
-0.000146564 
-0.000118026 
-0.000204578 
-0.000102456 
-0.000156543 
-0.00030564 
-0.000360943 
-0.000345167 
-0.000389068 
-0.000517023 
-0.000127893 
-0.000138511 
-0.000107841 
-6.67731e-05 
-0.000307894 
-0.000187144 
-0.000101518 
-5.11996e-05 
-0.000477902 
-0.000330957 
-0.0001108 
-0.000167141 
-0.000366128 
-0.000453554 
-0.000567337 
0.00165247 
-0.000282922 
-0.000459382 
-0.000458003 
0.0108191 
0.00242304 
-0.000585896 
0.008814 
-0.000407331 
-0.000377708 
0.0130557 
-0.000247915 
-0.000338086 
0.00177642 
-0.000244446 
0.00603031 
0.0116882 
0.00874867 
-0.000270036 
0.00313046 
-0.000242198 
-0.000379709 
0.00118525 
0.00762082 
0.00454392 
-0.00040758 
-0.000437174 
-0.00241622 
-0.00036015 
-0.000251774 
0.00405475 
-0.000312179 
-0.00652013 
0.00255637 
0.000116257 
-0.000329836 
0.00521011 
-0.00430808 
-0.0047817 
-0.00462143 
0.00452457 
0.00100314 
-0.00148143 
0.00375877 
0.00351681 
0.00055499 
0.00727921 
0.0075278 
0.00365906 
0.00551923 
-0.00422343 
-0.00369924 
-0.00174145 
0.00105459 
0.00374835 
-0.000426658 
0.00118222 
0.00309099 
0.00512879 
0.00206095 
-0.000364422 
0.00385146 
0.00573011 
0.0047489 
-6.41402e-05 
3.0984e-05 
-2.3818e-06 
-3.19096e-05 
-0.000272361 
-0.000122347 
-0.000114084 
-0.000217742 
-0.000414645 
-0.000309069 
-0.000302276 
-0.000336428 
-0.00036496 
-0.000361305 
-8.12794e-05 
-6.70788e-05 
-8.40394e-05 
-0.000211111 
-0.000167714 
-0.000204846 
-0.000304137 
-0.000253497 
-0.000288125 
-0.000287621 
-0.000283171 
0.0102146 
0.00509279 
0.0105464 
0.0100553 
0.00504817 
0.00308837 
0.00583064 
0.00381923 
0.00436261 
0.0036508 
-0.0162131 
-0.0119502 
-0.00595451 
-0.00716814 
0.00491927 
0.00375065 
-0.000379181 
0.00088945 
3.54513e-05 
-0.0177942 
0.00109468 
-0.000345065 
-0.0140205 
-0.00947061 
0.00258376 
0.0019556 
0.00241829 
0.00410679 
-0.000483501 
-0.00029051 
-0.00041287 
-0.000350412 
-0.000264478 
-0.000132839 
-0.000108368 
-0.000229304 
-0.000142416 
-9.01149e-05 
4.63176e-05 
-6.2459e-06 
-8.77813e-05 
-0.000112999 
-0.000222916 
5.82791e-05 
-2.01602e-05 
6.35931e-06 
2.29833e-05 
0.000172634 
0.000162362 
-0.000165613 
-4.54341e-05 
-1.0926e-05 
0.00086287 
-0.0018976 
-0.00395452 
-0.00203847 
0.00708266 
0.00301984 
0.00243792 
0.00326904 
0.0053329 
0.0077717 
0.0032228 
0.00284193 
0.00475771 
0.00580813 
-0.00104752 
-0.0033214 
1.7963e-05 
4.6914e-05 
-0.000336196 
0.00107939 
0.000897794 
-0.00257075 
0.00282859 
-0.00120011 
-0.00312515 
-0.00198329 
0.00506975 
-0.00181395 
-0.00763346 
-0.00159845 
0.00125584 
-0.000138261 
-0.000285286 
-0.000331671 
-0.00011387 
-8.8834e-07 
1.64256e-05 
-5.40152e-05 
-0.000270721 
-0.000177491 
-0.00013438 
-0.000149073 
-0.0003335 
-0.000294636 
-0.000217159 
-0.000223845 
-0.000325773 
-0.000291489 
-5.21696e-05 
-3.80201e-05 
-3.73088e-05 
2.35506e-05 
-8.21867e-05 
-6.6167e-05 
4.69511e-06 
-4.44844e-05 
-0.000151377 
-7.51706e-05 
-0.000104029 
-0.000197746 
-0.000170411 
-0.000196559 
-0.000206453 
-0.000284065 
0.00597152 
-0.000115588 
0.00343858 
-0.000234378 
-0.00746954 
-0.000170762 
-0.000246098 
-0.000159136 
0.00658482 
-0.00205361 
-0.000328825 
-0.000312188 
0.0081011 
0.00734742 
-0.000319259 
0.00654076 
-0.000240645 
7.08527e-05 
-0.000253227 
0.00182896 
0.00361615 
0.00232467 
-0.00026835 
0.00191893 
-0.000453023 
-0.00033382 
-0.000608356 
-0.00288496 
-0.000140918 
0.00276514 
-0.000273492 
-0.000509722 
-0.000299007 
-0.0120594 
0.00467731 
0.00340271 
0.000505008 
-0.000257733 
-0.000200573 
-0.000136899 
0.00776249 
-0.000175647 
0.00663824 
0.00023479 
-0.000322616 
0.000146052 
0.00468301 
-0.000305415 
0.00455005 
-0.00332242 
-8.60145e-05 
0.000702672 
-4.07998e-05 
-0.000263939 
-0.000259708 
-0.000294234 
0.00310415 
0.00233998 
-0.000212509 
-0.000250812 
0.0038828 
-0.000199317 
0.00409533 
-0.000235569 
0.00639221 
0.00885464 
0.00855808 
0.00457963 
-0.000231594 
-0.000131803 
-0.00235517 
0.000167179 
-6.21413e-05 
-0.0090708 
-0.00167421 
0.00120657 
0.00281681 
0.00422458 
0.00861329 
0.0048547 
0.00685772 
-0.000974572 
0.00310196 
0.00530221 
0.00222918 
-0.000232808 
-0.000689012 
0.0012231 
0.00241382 
0.00607414 
-0.000570504 
-0.000865051 
0.0024423 
0.00204946 
0.00295351 
0.00251786 
0.00198737 
0.00381284 
-2.30446e-05 
-0.000142798 
-0.000214147 
-0.000163278 
-8.43372e-05 
-5.5245e-05 
-0.00012198 
-0.000153947 
-0.000295541 
-0.000245161 
-0.000246124 
-0.000312285 
-0.000376463 
-0.000375803 
-0.00021999 
-0.000303075 
-0.000306067 
-0.000276769 
-0.00016953 
-0.000194484 
-0.000236762 
-0.000232182 
-0.000258671 
-0.000202428 
-0.000220222 
-0.000283309 
-0.000282912 
-0.000301384 
0.0060822 
0.00598672 
0.0065549 
0.00580029 
0.00189072 
0.00342141 
0.000832103 
0.00507515 
0.00312212 
0.00643102 
0.00771616 
0.00467797 
-0.000829001 
0.00385312 
0.000888698 
0.000881268 
0.00151676 
-0.000270753 
0.00171888 
0.00872954 
0.00471208 
0.00234277 
0.00419241 
0.00470121 
0.00531228 
0.00354589 
0.0108171 
0.00396725 
-0.000358568 
-0.000344838 
-0.000323531 
-0.000364059 
-0.000331503 
-0.000258303 
-0.000295034 
-0.00028683 
-0.000244615 
-0.000231396 
-0.000302657 
-0.000279534 
-0.000259601 
-0.000237057 
-0.000292858 
-0.000316056 
-0.000251063 
-0.000269831 
-0.000271796 
-0.000278075 
-0.000272967 
-0.000275428 
-0.000312939 
-0.000364173 
-0.000211746 
-0.000290303 
-0.000322832 
-0.000275992 
-0.000215411 
-0.000206522 
-0.00012672 
-0.000223211 
-0.000240553 
-0.000151119 
-0.000146601 
-0.00014028 
-0.000266934 
-0.000266308 
-0.000123911 
0.00301167 
0.00512032 
0.00644076 
0.002862 
0.00611836 
0.00225969 
0.000573268 
0.000375289 
0.0040256 
0.00722445 
0.00732675 
0.00548227 
0.0107446 
0.00766682 
0.00433749 
0.00245333 
0.00414503 
0.00368835 
0.00576725 
0.00280952 
0.000564126 
0.00509761 
0.00395379 
0.0027823 
0.00112791 
-0.000334912 
-0.00042406 
-0.000509458 
-0.000431209 
-0.000260363 
-0.000327015 
-0.000335785 
-0.000273731 
-0.000303054 
-0.000255159 
-0.000256237 
-0.000266641 
-0.000348274 
-0.000301118 
-0.000384803 
-0.000405613 
-0.000222547 
0.0046606 
-0.000296342 
-0.00026721 
-0.000343924 
-0.000271067 
-0.000283024 
5.97681e-05 
0.00337729 
0.00382702 
-0.000259866 
-0.000234341 
0.00739126 
0.000713652 
0.0093198 
-0.000326554 
-0.000122345 
-0.000279667 
-0.00025978 
-0.000266897 
-0.000275353 
0.00078161 
0.00412312 
-0.00348243 
0.0113283 
-0.00585397 
-0.000314048 
-2.54782e-06 
0.00680672 
-6.849e-05 
-0.000268744 
-0.00031076 
-0.000220572 
-0.000219501 
-0.000258824 
-0.00017718 
0.00201321 
-0.000134371 
0.00261727 
ITEM: TIMESTEP
2400000
ITEM: NUMBER OF ATOMS
896
ITEM: BOX BOUNDS pp pp ff
-1.7153631884999999e+01 1.8003017117999999e+01
-1.7855467918999999e+01 1.7553981017000002e+01
-3.4618715923000003e+01 3.4618715923000003e+01
ITEM: ATOMS q 
0.0191291 
0.0114066 
0.00952448 
0.0121089 
0.00409642 
0.00937419 
0.00657217 
-0.00369466 
0.00320657 
0.00129298 
-0.00335421 
0.00198502 
0.0139593 
0.0140908 
0.00530901 
0.00504809 
-0.000470731 
0.00510557 
0.00544429 
0.00321224 
-0.000388023 
-0.000304229 
0.00207496 
0.00213026 
-0.000566071 
-0.000492752 
-0.000540848 
-0.000513042 
-0.000393251 
-0.000409521 
-0.000389877 
-0.000249158 
-0.000353503 
-0.00019681 
-0.000199535 
-0.000227198 
-0.000451467 
-0.000466067 
-0.000377509 
-0.000273341 
-0.000357545 
-0.00034119 
-0.000227886 
-0.000230069 
-0.000231034 
0.00282759 
0.00452826 
0.00773698 
0.00551302 
0.00765168 
0.00401643 
0.00479445 
0.00474156 
0.00575111 
0.00281249 
0.00308312 
0.00491968 
-0.00015335 
-0.00280717 
3.45528e-05 
-0.00501006 
0.00464221 
0.00324702 
0.00214743 
0.00516172 
0.00607225 
0.0065327 
0.00940704 
0.00732395 
0.00873111 
0.00770383 
0.00731283 
0.00747324 
0.00152036 
0.0108371 
0.00999808 
0.0043268 
-0.000436123 
-0.000320326 
-0.000296829 
-0.00036404 
-0.000400454 
-0.000357288 
-0.000395117 
-0.000436024 
-0.000260342 
-0.000319324 
-0.000398299 
-0.000419227 
-1.93683e-05 
-0.000135194 
-0.000247163 
-0.000145446 
-0.000359261 
-0.000285036 
-0.000260357 
-0.000466431 
-0.000432874 
-0.000371463 
-0.000467272 
-0.000479957 
-0.000444699 
-0.000260863 
-0.000439264 
-0.000436483 
0.0068525 
0.00822337 
0.00238822 
0.00449365 
0.00100198 
0.00506139 
0.00719535 
0.00505789 
0.000473863 
-0.000610309 
-0.000311148 
0.00325272 
0.00442688 
-0.00387336 
0.000651512 
-0.00428524 
0.00467495 
0.00538874 
7.08527e-05 
0.00317673 
0.00592608 
0.00387264 
0.00294244 
0.00165071 
-0.00502166 
0.00263911 
0.00198465 
-0.000370604 
-0.000267903 
-0.000206199 
-0.000347745 
-0.000304306 
-0.000208592 
-0.000257902 
-0.000284069 
-0.000345157 
-0.000321197 
-0.000314959 
-0.000206178 
-0.000241589 
-0.000294236 
-0.000256649 
-0.00015766 
-0.000108779 
-9.45297e-05 
-3.63777e-05 
-0.000272613 
-0.000187724 
-0.000110303 
-0.000151983 
-0.000240129 
-0.000252643 
-0.000203512 
-0.000177154 
-0.000287783 
-0.000139715 
0.00539992 
0.00405627 
-0.000387649 
-0.000106845 
-0.00043411 
-0.00152436 
0.00837298 
0.000494371 
-6.20227e-05 
-0.000424224 
-0.000196191 
0.00262921 
-9.82673e-05 
-0.000235546 
0.00831858 
-0.000378749 
0.0021217 
-0.000178314 
-0.00235417 
0.00607153 
0.00103258 
-6.99538e-05 
-0.000279666 
-0.000457885 
0.00279284 
0.00434035 
-9.76252e-05 
-0.000165452 
0.00621588 
-0.00012543 
-0.00043476 
-0.000289443 
0.00604463 
-0.000109434 
0.00962063 
0.0066216 
-0.000413149 
0.00336289 
0.00477367 
0.00539704 
-0.000831045 
0.00598793 
-0.000398534 
-0.00017179 
0.00028252 
-0.00187329 
0.000941558 
-0.000227951 
-0.000263714 
-0.00138974 
-0.00135277 
0.00232751 
-0.000366352 
-0.000151647 
-0.000115599 
-7.69967e-05 
-0.00303667 
-0.000611982 
-0.000153268 
-0.000322489 
-0.00504122 
0.00344212 
-0.00906712 
-0.000278352 
0.00284957 
-0.000182828 
-9.21593e-05 
-0.00117754 
0.00644578 
-0.00017141 
-0.00177912 
0.000662355 
0.000948332 
-0.00329059 
-0.00199884 
-0.00297322 
0.000687528 
-0.00322771 
0.0011681 
0.0043779 
0.00451756 
-0.00353574 
-0.00600549 
-0.0033911 
-0.00296331 
-0.00607059 
-0.00815243 
0.00127892 
-0.00464435 
-0.0105423 
-0.0101641 
0.00378796 
0.00144721 
-0.00485931 
-7.25331e-05 
-0.000143369 
-0.000182931 
-0.00012431 
-7.27953e-05 
-6.01475e-05 
-5.98408e-05 
1.38592e-05 
-0.000134234 
-8.37287e-05 
-3.24238e-05 
-5.65031e-05 
-6.99057e-05 
-0.000132871 
-0.000181022 
-0.000190946 
7.7997e-05 
3.99182e-05 
-6.87992e-05 
-0.000129427 
4.81927e-05 
0.000129646 
1.33632e-05 
-2.54882e-05 
0.000710947 
-0.000899708 
0.00195966 
-0.00366748 
-0.00530518 
-0.0035476 
-0.00588159 
-0.00736327 
-0.000782886 
0.000218144 
0.00185945 
0.00236033 
0.00420578 
0.00241401 
-0.00394407 
-0.007271 
0.000724167 
0.0031789 
0.00383104 
0.00456159 
-1.65744e-05 
-0.000654271 
0.00213366 
0.00221189 
0.00395965 
0.00343253 
0.00400566 
0.0019831 
-0.0157412 
0.00151385 
0.00315262 
0.000221668 
-0.000107915 
-0.000124033 
-0.000110324 
-0.000151101 
-1.46543e-05 
-5.1722e-05 
-0.000110769 
-0.000118989 
-5.87203e-05 
-8.76576e-06 
-7.49448e-05 
-0.000157121 
-0.000119901 
-0.000133373 
-0.000177197 
-0.000230256 
-8.36612e-05 
4.9859e-05 
8.07439e-05 
5.26585e-05 
-0.00018315 
-0.000124061 
-4.48378e-05 
-0.000146115 
-0.000212659 
-0.000200743 
-0.000207791 
-0.000211962 
-0.000241167 
-0.000244139 
-0.000223189 
-0.000204979 
0.00315629 
0.00518617 
0.00297088 
0.00726249 
0.00567518 
0.00188423 
0.00309878 
0.00548491 
0.00946243 
0.00100977 
0.00276634 
0.00572035 
0.00690845 
-0.00264299 
-0.00184931 
-0.00193339 
-8.75051e-05 
0.00637781 
0.00283205 
0.00228779 
0.00174154 
-0.000272789 
-0.000309662 
-0.000289753 
-0.000208463 
-0.000237914 
-0.000275648 
-0.000219923 
-0.000204457 
-0.00024631 
-0.000302856 
-0.000322695 
-0.000373022 
-0.000157315 
-0.000126688 
0.000205044 
-5.55448e-05 
-0.000162787 
-9.05749e-05 
-5.26196e-05 
-0.000244446 
-0.000293226 
-0.000197095 
-0.000159218 
-0.000307365 
-0.000195396 
0.00721729 
-0.000142853 
-0.000187051 
0.000150966 
-0.00020149 
0.0131925 
0.00319911 
-0.00180326 
-0.000975025 
-0.00303375 
0.00430672 
-0.000166663 
-6.89259e-05 
0.00130605 
-0.000195495 
0.000648266 
-0.000259423 
-0.000122408 
0.00264765 
0.00122613 
-0.000165929 
-8.9898e-05 
-0.00127218 
-0.000154505 
-0.000313016 
-0.000361154 
0.00119883 
-0.000195356 
0.00290307 
-7.92733e-05 
-0.000156886 
-0.000132109 
-0.000219154 
-0.00586536 
-0.000151934 
-0.000238557 
0.010247 
0.00919802 
-0.000272608 
-0.00204515 
-0.000439017 
0.00013124 
0.00212004 
-0.000237863 
-0.00191587 
-0.000249997 
-0.000290421 
-0.00241087 
0.00674166 
-0.000401032 
0.00213417 
-0.000112474 
-0.000148161 
-2.13834e-05 
0.000820028 
-0.000186923 
-0.000186382 
0.0125847 
0.00997748 
0.00694176 
-0.00350087 
-0.0119075 
-0.0109201 
0.0147766 
0.00458793 
0.000115656 
0.000282478 
-0.00294877 
0.00195423 
0.00161437 
-0.00489612 
-0.0010842 
-0.00873988 
-0.0126269 
-0.00568053 
0.000568449 
0.000406835 
-0.00713403 
-0.00568844 
-0.00160446 
-0.00208673 
-0.00253598 
-0.00643725 
-0.00570078 
-0.00444678 
0.000351883 
-0.00178261 
-2.92813e-05 
9.38686e-05 
6.94675e-05 
0.000144482 
-0.000268776 
-2.96715e-05 
0.000107855 
8.15182e-05 
-0.000146613 
-9.55532e-05 
2.45883e-05 
-6.16387e-06 
-2.07928e-05 
-8.67581e-05 
1.47825e-05 
-0.000159461 
-0.000295032 
6.11132e-05 
-1.73468e-05 
-0.000172747 
-1.41592e-05 
1.68117e-05 
-9.33731e-05 
-0.000118592 
-0.00014469 
-0.0100954 
0.00323173 
-0.01197 
-0.0081385 
0.00197218 
0.00290893 
0.00652449 
-0.00352396 
-0.000229583 
0.00200358 
0.0118724 
0.00191984 
-0.00112186 
0.00417878 
0.00643635 
0.00257543 
0.00380605 
0.00527007 
0.00539645 
0.00332332 
0.00275956 
0.00131812 
0.00294925 
0.00183536 
0.011713 
0.00846266 
0.00306865 
0.00253381 
-0.000114578 
-0.000216907 
-0.000137166 
-0.000125053 
-0.000220261 
-0.000253476 
-0.000160225 
-0.000143829 
-0.00020949 
-0.000278914 
-0.000333292 
-0.000226458 
-0.000310827 
-0.000467227 
-0.000223003 
-0.000290716 
-0.000276861 
-0.000259913 
-0.000294342 
-0.000269269 
-0.000247906 
-0.000405201 
-0.000288921 
-0.00020607 
0.00232923 
0.00486912 
0.0083305 
0.00432335 
0.00351451 
0.00711869 
0.00701985 
0.00327207 
-0.000552248 
0.00185569 
0.00269138 
0.000773056 
2.82895e-06 
0.00254363 
0.00311133 
0.00358228 
0.0012255 
0.00412165 
4.94503e-05 
0.000135028 
0.0025925 
0.00491747 
-5.15633e-05 
1.06279e-05 
0.00346796 
0.00289311 
-0.000462554 
-0.000823896 
0.000961699 
0.0028085 
0.00296966 
-0.000290502 
-0.000203224 
-0.000134414 
-0.000385972 
-0.000428893 
-0.000387341 
-0.000302496 
-0.000279332 
-0.000352885 
-0.000297663 
-0.000225808 
-0.000189301 
-0.000225669 
-0.000216113 
-0.000192069 
-0.000245152 
-0.000245746 
-0.000249184 
-0.000220447 
-0.000145053 
-0.000127388 
-0.000228935 
-0.00023493 
-0.000180963 
-0.000185679 
-0.000205196 
-0.000233564 
-0.000234988 
-0.000275869 
-0.000222016 
-0.00028819 
-0.000150469 
-0.000281022 
0.00270979 
-0.000356866 
-0.000262091 
-0.000164099 
-0.0002519 
-0.000189028 
-0.000207115 
-0.000359267 
-0.00095767 
0.00105628 
0.00536581 
0.00215901 
-0.000258525 
-0.000312367 
-0.000244414 
-0.000193559 
-0.000276625 
-0.000221556 
0.00079904 
-0.000328404 
-0.000289961 
0.00268071 
2.37271e-05 
0.00651817 
0.00622119 
0.00382334 
0.00620693 
0.00374658 
0.00691185 
-0.00023361 
-0.00911223 
-9.88828e-05 
0.00365914 
0.000270691 
0.00223493 
-0.000145577 
-0.00034467 
0.00131174 
0.000324259 
-7.35258e-05 
0.00208233 
-0.00026515 
-0.00704214 
0.00568853 
-0.000269464 
-7.72183e-05 
-0.00354287 
-0.000326911 
0.00414766 
-2.90412e-06 
-0.000320088 
-0.000231176 
-0.000217207 
0.00155959 
0.000119633 
0.0058626 
-0.000199506 
0.000264459 
-0.000288584 
0.00239896 
0.00764298 
-0.000270059 
-0.00229019 
-0.00100059 
-0.0031295 
-0.00308561 
-0.00808865 
-0.00147834 
0.00177158 
0.00146838 
0.00437171 
0.00482363 
0.00623764 
0.00221847 
0.00525439 
0.00129244 
-0.0013228 
0.000602392 
-0.000719126 
-0.000856846 
-0.000166384 
0.00441381 
0.00228004 
0.00162196 
-0.00125467 
0.00716288 
-3.3028e-05 
-5.69362e-05 
0.000409817 
0.00100042 
-6.76945e-05 
-0.000100336 
-0.000158489 
-0.000147179 
-0.000129528 
-4.9538e-05 
-8.96969e-05 
-0.000149801 
-0.000300057 
-0.000213834 
-0.000212616 
-0.000299739 
-0.000356596 
-0.000351249 
-0.000170923 
-0.00020405 
-0.000188422 
-0.000186102 
-0.000162505 
-0.00013666 
-0.000167019 
-0.00019217 
-0.000252176 
-0.000186777 
-0.000176941 
-0.000210685 
-0.000259688 
-0.000240603 
0.00566397 
0.0106485 
0.00771959 
0.000951654 
0.00314975 
0.00735207 
0.00759797 
0.000618814 
0.000636608 
0.000778281 
0.00505477 
0.00488126 
-0.000939995 
0.00119645 
0.00411935 
0.00189266 
0.00187993 
-0.00105726 
0.000441603 
0.00157271 
0.00312176 
0.00262928 
0.00311795 
0.000922353 
0.00465683 
0.00129874 
0.00158104 
0.00121196 
-0.000387622 
-0.00033541 
-0.000365507 
-0.000391434 
-0.000325361 
-0.000237078 
-0.000276135 
-0.000332431 
-0.000272976 
-0.000247259 
-0.000196682 
-0.000233947 
-0.000246973 
-0.000226084 
-0.000286466 
-0.000276473 
-0.000215374 
-0.000258005 
-0.000259138 
-0.000232683 
-0.000210227 
-0.000199694 
-0.00021488 
-0.000225013 
-0.000214508 
-0.000214936 
-0.000216918 
-0.000246796 
-0.000170332 
-0.000261082 
-0.000199378 
-0.000166002 
-0.000167112 
-0.000181587 
-0.000238052 
-0.000110794 
-0.00024881 
-0.000213005 
-5.80293e-05 
4.43233e-05 
0.00536101 
0.00740481 
0.0030477 
0.00284064 
0.00360071 
0.00126085 
0.0035731 
0.00228702 
0.00230873 
0.00211988 
0.00499929 
0.00337757 
0.00599429 
0.0103027 
0.0011419 
0.00197179 
0.00512567 
0.00677097 
0.00073256 
-0.00154827 
-0.00187409 
-0.00228232 
0.00213086 
0.00248263 
-0.000258654 
-0.000274504 
-0.000295621 
-0.000323173 
-0.000239852 
-0.000282825 
-0.000296707 
-0.00022685 
-0.000232946 
-0.000243121 
-0.000212056 
-0.000194265 
-0.000251307 
-0.000239652 
-0.000308393 
-0.000280002 
-9.30284e-05 
-0.000202068 
0.00449759 
0.00514896 
0.000175905 
-0.000182442 
0.00426819 
0.0208437 
-0.000405092 
0.00781549 
0.00326512 
0.0035932 
-0.000297869 
-0.000256334 
-2.56827e-06 
-0.000318199 
0.00767364 
-0.000344135 
-0.000295301 
-0.000274571 
-0.0102368 
-3.77791e-06 
-0.000293765 
-0.000248369 
-0.000278827 
0.006076 
0.0115766 
-0.000266189 
0.001926 
-0.000374897 
0.00595489 
0.00280432 
0.000759308 
-0.000253566 
-0.000286083 
0.00337163 
0.00262802 
0.00333381 
-0.000278914 
-0.00030559 
-0.000328656 
-0.000356877 
-0.000346277 
0.00371647 
0.00388497 
0.00400425 
-0.000252611 
-0.00298277 
0.00245246 
-0.000257458 
-0.000281154 
-0.000289311 
-0.00208804 
ITEM: TIMESTEP
2600000
ITEM: NUMBER OF ATOMS
896
ITEM: BOX BOUNDS pp pp ff
-1.7153631884999999e+01 1.8003017117999999e+01
-1.7855467918999999e+01 1.7553981017000002e+01
-3.4618715923000003e+01 3.4618715923000003e+01
ITEM: ATOMS q 
0.00522858 
0.00563941 
0.0016139 
0.000788135 
0.00515652 
0.00801444 
0.00521161 
-0.00058163 
0.00293004 
0.00202368 
-0.00193146 
-0.0139358 
0.00151259 
0.00168085 
-0.00628619 
-0.00294765 
-0.00424465 
0.00107823 
0.00695687 
0.0104492 
-0.00519757 
0.00238596 
0.00495126 
0.00234287 
-0.000329715 
-0.000217314 
-0.000182678 
-0.000139807 
-0.000232014 
-0.000190715 
-0.000123121 
-7.61839e-05 
-5.94529e-06 
1.85299e-05 
3.68379e-05 
7.94177e-05 
-0.00010838 
-0.000101625 
-5.1721e-05 
-0.000187534 
-0.000194813 
-0.000164021 
-3.36614e-05 
-0.000189882 
-0.000223486 
0.00412594 
0.00113702 
-0.00693067 
-0.00349579 
0.00224469 
0.00145248 
-8.19107e-05 
0.00406802 
0.00205607 
-0.00107517 
0.00262862 
0.00229854 
0.00111784 
0.00130502 
0.000207248 
-0.00569868 
-0.00296587 
-0.00376772 
-0.00320201 
-0.0069789 
0.00744583 
0.00270313 
0.000201581 
0.00094025 
0.00728577 
0.0125379 
0.0100783 
0.0105476 
-0.0102759 
0.00574995 
0.0066292 
0.00408445 
-5.28698e-05 
7.88499e-05 
9.74072e-05 
-1.46991e-05 
-0.000181576 
-9.77653e-05 
-0.000123753 
-0.00029258 
-0.000202566 
-0.000190778 
-0.000299053 
-0.000305171 
-0.000131708 
-9.20296e-05 
-0.0001135 
3.65345e-06 
-2.5312e-07 
1.37359e-05 
-2.8936e-05 
-0.000268266 
-8.36137e-05 
-1.40039e-05 
-0.000376227 
-0.000369635 
-0.000239345 
-0.000119524 
-0.000308134 
-0.000316658 
-0.0018037 
-0.0100497 
-0.0114661 
-0.00510279 
0.00493841 
0.00303203 
-0.00190571 
0.00121342 
0.00263081 
0.00192878 
0.00338186 
-0.0015791 
-0.00442427 
-0.00415212 
-0.00041509 
-0.00445235 
0.0004911 
-0.00396786 
-0.00451866 
0.00109258 
-0.00142243 
0.00307542 
0.00367616 
-0.000253904 
-0.00421805 
0.00116894 
-0.00115925 
-1.65686e-05 
-0.000219186 
-0.000128817 
6.00184e-05 
9.75265e-05 
4.07783e-05 
6.02004e-05 
-0.000135829 
-2.15615e-05 
1.6853e-05 
-4.44304e-05 
-9.49987e-05 
-0.000111274 
-6.21546e-05 
-3.38787e-05 
4.43137e-05 
-4.38069e-05 
-0.000125549 
-5.75956e-05 
-4.70055e-05 
1.14163e-05 
-4.81402e-05 
-9.01489e-05 
-4.87256e-05 
-9.45914e-05 
-7.4691e-05 
-4.01503e-05 
0.000890416 
4.39964e-05 
-0.000116654 
-0.000612311 
7.81093e-06 
-0.0026499 
-1.06217e-05 
-2.96291e-06 
-2.12418e-05 
0.000304075 
-0.000186972 
-0.00380196 
-0.00300168 
-1.5699e-05 
-8.54213e-05 
-9.39709e-05 
-0.000128859 
-0.000132422 
-0.00164823 
0.00224473 
-0.0052227 
0.000895048 
4.91916e-05 
1.2222e-05 
-0.00264559 
1.15377e-06 
3.31543e-06 
0.00273358 
-4.57902e-05 
-0.00360628 
-0.00406818 
-2.12481e-05 
6.54959e-05 
-0.00118474 
-2.69073e-05 
1.22377e-05 
-0.000273555 
0.000668429 
-0.00471442 
-0.000379282 
-0.000831911 
0.00134043 
-9.93718e-05 
0.00030995 
-0.000810998 
-1.65143e-05 
-2.55679e-05 
-0.00347295 
-0.000164482 
-0.000237537 
-0.0032439 
-3.52222e-06 
5.65711e-05 
-0.00332886 
-5.25019e-06 
-0.000861565 
0.00575023 
3.33021e-05 
-0.00490566 
0.0055715 
-1.12052e-05 
-0.00443358 
-6.38865e-05 
-6.8536e-05 
-3.01411e-05 
-0.00256205 
-0.00150189 
0.00649133 
-0.000527643 
6.62786e-05 
3.51623e-05 
-0.00772436 
0.000721235 