ITEM: TIMESTEP
4600000
ITEM: NUMBER OF ATOMS
896
ITEM: BOX BOUNDS pp pp ff
-1.7153631884999999e+01 1.8003017117999999e+01
-1.7855467918999999e+01 1.7553981017000002e+01
-3.4618715923000003e+01 3.4618715923000003e+01
ITEM: ATOMS q 
-3.79885e-05 
0.0072783 
-0.0160918 
0.00590308 
0.00412553 
-0.000395109 
0.00931642 
-0.00031545 
-0.000324149 
-0.000399404 
-0.000401101 
0.00443097 
0.0020548 
-0.00030908 
0.00543314 
-0.000369066 
-0.000331983 
2.0836e-05 
0.00471764 
-0.000258901 
0.00533583 
0.00609099 
0.00837657 
0.00408613 
0.00691835 
0.00269063 
0.0089847 
0.0027466 
0.005144 
-0.00493503 
0.0133872 
0.00616424 
-0.000610745 
0.00540447 
0.0157627 
0.00658592 
0.00754643 
0.00714381 
-0.0022217 
0.00505776 
0.00931623 
0.00640847 
0.00496739 
0.00219582 
0.00432081 
0.0062529 
0.00617062 
0.00623855 
0.00613634 
0.00478081 
-0.00032723 
-0.000244019 
-0.000221821 
-0.000211047 
-0.000492457 
-0.000274147 
-0.000261685 
-0.000364282 
-0.000609149 
-0.000438184 
-0.000417709 
-0.00041963 
-0.000317696 
-0.000357261 
-0.000451704 
-0.000384974 
-0.000381832 
-0.00045503 
-0.000383659 
-0.000409731 
-0.000408895 
-0.0003537 
-0.000387752 
0.0181415 
0.0108283 
0.00785738 
0.00342743 
0.0111751 
0.00821709 
-0.000697438 
-0.000534125 
0.0194457 
0.00679052 
0.00537872 
0.00554297 
0.013859 
0.00723049 
0.00420299 
0.00270079 
0.00329323 
0.00451142 
0.00357766 
0.00474006 
0.000955951 
0.00337881 
0.00472628 
0.00168532 
0.00663448 
0.00264986 
0.00155809 
0.00264018 
0.00420002 
0.00691413 
0.00474576 
0.00291564 
-0.00054887 
-0.00045287 
-0.000399209 
-0.000332935 
-0.00047696 
-0.000325784 
-0.000296875 
-0.000278648 
-0.00051508 
-0.000368097 
-0.000321765 
-0.000363263 
-0.00040894 
-0.000367241 
-0.000358252 
-0.000326599 
-0.000317351 
-0.000345266 
-0.000325569 
-0.0002871 
-0.000305026 
-0.000306931 
-0.000325426 
-0.000287749 
-0.000314016 
-0.000320282 
-0.000327207 
-0.000315244 
0.00764692 
0.0111278 
0.016408 
0.00851094 
0.0079124 
0.00794354 
0.00778196 
0.00873945 
0.00359442 
0.00564891 
0.00501016 
0.00787096 
0.00673374 
0.0098503 
0.00871124 
0.00724592 
0.00777076 
0.00463134 
0.00374871 
0.0058437 
0.00917915 
0.0063633 
0.00912476 
-0.00646433 
0.00924755 
0.00633133 
-0.00335279 
-0.000480776 
-0.000468678 
-0.000364067 
-0.000526205 
-0.000610174 
-0.000565347 
-0.000466722 
-0.000490027 
-0.000520814 
-0.000484937 
-0.000471962 
-0.000391459 
-0.000461651 
-0.000469212 
-0.000385419 
-0.000457667 
-0.000538493 
-0.000547055 
-0.000492276 
-0.000435764 
-0.000433262 
-0.000441382 
-0.000393663 
-0.000209276 
-0.000305978 
-0.000250791 
-0.00010638 
0.00403189 
-0.0106011 
-0.000344416 
-0.000475406 
0.00525487 
-0.000662369 
-0.00011529 
0.00296436 
5.51996e-05 
-0.000344267 
0.00428137 
0.00527655 
0.000551383 
0.00293424 
4.88295e-05 
-0.000302679 
-0.000139267 
0.00543249 
-0.000361976 
0.00642014 
0.00112812 
0.00114336 
0.00679111 
0.00722098 
-0.000351863 
-0.0123113 
0.000141941 
-0.000276128 
-0.000324551 
-0.000333846 
-0.000328163 
0.00666856 
-0.000360569 
-0.000404273 
-0.000707501 
-0.000341795 
0.00949618 
-0.000390505 
-0.000336996 
-0.00038586 
-0.000378433 
0.00776973 
0.00327846 
-0.000351692 
-0.000252876 
0.00405568 
-0.000259508 
-0.00037704 
-0.00026282 
-0.000332409 
-0.000359446 
0.00438129 
-0.000162427 
0.00887664 
-0.00251231 
-0.000203823 
0.00175639 
0.00448454 
0.000628326 
-0.000301501 
0.00532344 
-0.000140498 
-0.000231308 
0.0198294 
-0.000320885 
-0.000372423 
-0.000190746 
-0.000280351 
-0.000298682 
0.0157818 
0.0110224 
0.0051884 
0.00642337 
0.00546647 
0.0064808 
0.00529437 
0.00419528 
0.00652731 
0.00324836 
0.00933068 
0.0081178 
-0.000577936 
0.00718874 
0.00507067 
0.00261474 
0.00400238 
0.0113452 
0.00830978 
0.0080295 
0.00595022 
0.00242906 
0.0035039 
0.00439276 
-0.000491345 
-0.000547321 
-0.000462838 
-0.000390468 
-0.000401491 
-0.000443382 
-0.000415732 
-0.000452724 
-0.000227375 
-0.000377491 
-0.000455385 
-0.00048931 
-0.000354117 
-0.000381496 
-0.000328906 
-0.000239936 
-0.000421044 
-0.00033925 
-0.000284126 
-0.000323133 
-0.000487844 
-0.000440133 
-0.000387113 
-0.000333218 
0.0038551 
-0.00663946 
0.00338481 
0.00233426 
-0.0129232 
-0.0125277 
-0.00147353 
-0.00181832 
-0.00874865 
-0.00681872 
0.00904486 
0.00441146 
0.021296 
0.00989249 
0.010716 
0.00620094 
0.00411009 
0.00470576 
0.00625184 
0.00474949 
-0.00028497 
0.00675536 
0.0069555 
0.00204303 
-0.000547996 
0.0168166 
0.0100502 
0.00784342 
0.00961787 
-0.00289093 
-0.0012379 
0.000903279 
0.00344602 
2.8094e-05 
-0.000191693 
-0.000361889 
-0.000369577 
4.68118e-05 
4.41787e-05 
-0.000186337 
-0.000256317 
-0.000274592 
-8.02796e-05 
-0.000187716 
-0.000374416 
-0.000631605 
-0.000491595 
-0.000530438 
-0.000702988 
-0.000404219 
-0.000419136 
-0.000303047 
-0.000204113 
-0.000311395 
-0.000307926 
-0.000224236 
-0.00021155 
-0.000391437 
-0.000283442 
-0.000260546 
-0.000297014 
-0.000595311 
-0.000462317 
-0.000385272 
-0.0004347 
0.00571982 
-0.00200949 
-0.000110193 
4.4922e-05 
0.0011269 
0.00187149 
0.00848017 
0.00502995 
0.00438115 
0.00041606 
-0.00491662 
0.000554814 
0.00515307 
0.00144463 
0.00365817 
0.00837548 
0.0106609 
0.0068766 
0.0047518 
0.00923651 
0.0236565 
-0.000217989 
-0.000243504 
-0.00020932 
-0.000206285 
-0.000289075 
-0.000221953 
-0.000239633 
-0.000320366 
-0.000305607 
-0.000334348 
-0.000344592 
-0.000396288 
-0.00020125 
-0.000176164 
-9.19237e-05 
-0.000177492 
-0.000361 
-0.000276006 
-0.000154446 
-0.000223863 
-0.000445697 
-0.00039061 
-0.000162379 
-0.000229165 
-0.000323398 
-0.000141925 
-0.000365623 
-0.00035289 
-0.000397943 
-0.000159835 
0.000458946 
0.0115057 
0.0165239 
0.00403179 
-0.000306298 
0.00490126 
0.00422604 
-0.000107463 
-0.000259851 
0.00280228 
-0.000105951 
0.00198092 
0.00771047 
-0.000368345 
-0.000389753 
0.0040044 
-0.000317625 
-0.000366485 
0.00333564 
0.000368091 
0.00783282 
0.00996142 
0.00459683 
-0.000319973 
-0.00038511 
0.00939747 
0.000305061 
-0.000232646 
0.0128208 
-0.000689594 
-0.000599487 
-0.000371511 
0.0102635 
-0.000646395 
0.00707476 
2.70267e-06 
0.00706066 
0.00217592 
-0.0034392 
0.0003636 
-0.0030788 
0.00361842 
0.00378232 
0.00414217 
0.000787454 
0.000670855 
0.00380883 
0.00936284 
0.0018193 
0.0059498 
0.00450865 
0.00539748 
0.00291725 
-0.00418209 
0.000415699 
0.000625807 
-0.00348282 
-0.00908071 
0.00280032 
-0.00278004 
-0.00543118 
0.00136277 
0.00454026 
0.0033125 
-0.000329771 
-0.00023432 
-0.000261207 
-0.000222032 
-0.000332992 
-0.000248698 
-0.00021055 
-0.000170986 
-0.00037046 
-0.000286473 
-0.000251528 
-0.00024971 
-0.000302174 
-0.000288541 
-0.000136751 
-0.000194275 
-0.000136466 
-4.45493e-05 
-1.60929e-06 
5.50169e-05 
-0.000193242 
-5.97376e-05 
-0.00011713 
-0.00026881 
-0.000304851 
0.00509183 
0.000776026 
0.00543126 
0.00451267 
0.00294276 
0.00676412 
0.00718601 
0.00468438 
0.00837939 
0.00480564 
0.00716095 
0.00140075 
0.00129582 
0.00414145 
0.00251762 
0.00517121 
0.00136862 
-0.00262263 
0.00423984 
0.00332073 
-0.00926016 
-0.00572069 
-0.0041858 
-0.00349627 
0.00583984 
-0.00921447 
-0.00531093 
0.00803534 
-0.00037523 
-0.000246523 
-0.000406616 
-0.000305258 
-0.000271143 
-0.000174578 
-0.000342815 
-0.000300381 
-0.000161434 
-4.00007e-05 
-0.000308462 
-0.000216553 
-0.000123673 
-0.000176901 
-0.000260259 
-0.00014779 
-0.00025447 
-0.000318464 
-5.80643e-05 
-0.000126892 
-0.000274166 
-0.000180553 
-0.000114928 
-0.000296186 
-0.0135903 
0.000194613 
0.00875071 
0.00556656 
-0.00499138 
-0.00582028 
0.00270797 
0.00554308 
0.00586773 
0.00310901 
0.00615168 
0.0109587 
0.00485408 
0.00793682 
0.00498578 
0.00279449 
-0.00173292 
0.00848068 
0.00704405 
0.00534615 
0.0077416 
0.00172116 
0.00880132 
0.00629254 
0.00310931 
0.000897621 
0.00380924 
0.000946427 
0.00953605 
0.000235721 
-0.000649838 
-2.1075e-06 
-3.46191e-05 
-0.000293095 
-0.000168754 
-0.000343331 
-0.000386705 
-0.000368794 
-0.000197969 
-0.000238034 
-0.000370177 
-0.000402525 
-0.00038784 
-0.000379302 
-0.000432894 
-0.000439348 
-0.000450802 
-0.00043626 
-0.000386243 
-0.000344257 
-0.000446524 
-0.000502902 
-0.000377359 
-0.000389415 
-0.000384563 
-0.000304922 
-0.000342515 
-0.000319668 
-0.000254073 
-0.000200713 
-0.000283036 
-0.000216397 
-0.000474794 
0.00672714 
-0.000573343 
0.00901077 
-0.000612185 
-0.000599186 
-0.000356972 
-0.000575904 
0.00999065 
-0.000698742 
-0.000541372 
-0.000663289 
-0.000516922 
-0.000480456 
-0.000333197 
-0.000693786 
0.00766492 
0.00363359 
-0.000571926 
0.00136332 
0.0214991 
0.00668447 
-0.000482172 
-0.000676167 
0.0119154 
0.0138894 
0.00508476 
0.00710083 
0.00726858 
-0.000600959 
-0.000367821 
0.0202536 
0.0127141 
-0.000539173 
0.00866002 
0.00367159 
-0.000616355 
-0.000386689 
-0.000447796 
-0.000234442 
0.00791192 
0.00599512 
-0.000404643 
0.0099829 
0.00432344 
-0.000624519 
-0.000361081 
0.0111384 
-0.000427148 
0.0150943 
0.00614399 
-0.000403441 
0.00404864 
0.00574686 
0.0137122 
0.00580336 
-0.000258959 
-0.000300624 
0.000311026 
0.00427987 
0.00569548 
0.00571168 
-0.000130654 
0.00341353 
0.00207522 
-0.000138654 
-0.000222321 
0.0051709 
-0.000285792 
-0.000309324 
-0.000167573 
0.00815337 
0.00779578 
-0.000306713 
-0.000157317 
0.00849752 
0.0192297 
0.0117507 
0.00675676 
0.00518092 
0.00258233 
0.000153562 
0.00445702 
0.00653238 
-0.000729029 
0.00198349 
0.00925838 
0.0143711 
0.0106524 
0.00563551 
0.00175136 
0.000950609 
0.00232765 
0.00155765 
0.00386356 
0.00182636 
0.000366941 
0.00224322 
0.00524899 
0.00534981 
0.0051621 
0.00761051 
0.000531262 
-0.000582724 
-0.000716812 
-0.000705946 
-0.000563504 
-0.000326984 
-0.000467782 
-0.000441728 
-0.00031515 
-0.000230656 
-0.000293972 
-0.000304816 
-0.000318327 
-0.000255698 
-0.000318688 
-0.000504735 
-0.000568211 
-0.000481523 
-0.000448178 
-0.000303265 
-0.000368215 
-0.000395378 
-0.000359061 
-0.000298405 
-0.000272948 
-0.000292855 
-0.000262562 
-0.000332047 
-0.000289942 
0.00155895 
0.00263049 
0.0025057 
0.00318967 
0.00486376 
0.0017633 
0.00565626 
0.0142831 
0.0116461 
0.0136122 
0.00605071 
0.00699023 
0.00258224 
0.0045432 
0.00408124 
0.00195802 
0.00660667 
0.00284999 
0.00344323 
0.00663083 
0.0137859 
0.00984588 
0.0118333 
0.0161153 
0.00446614 
0.00328159 
0.00455854 
0.00628682 
-0.000244092 
-0.00033067 
-0.000324857 
-0.000283429 
-0.000302801 
-0.000326227 
-0.000505893 
-0.000379968 
-0.000364605 
-0.000458476 
-0.000588644 
-0.000555862 
-0.000535655 
-0.000548807 
-0.000348378 
-0.00029375 
-0.00033961 
-0.000338709 
-0.000312126 
-0.000295779 
-0.0004499 
-0.000370961 
-0.000349686 
-0.000369018 
-0.000459897 
-0.000491655 
-0.000437251 
-0.000429491 
0.00751596 
0.00877532 
0.00328287 
0.00887477 
0.0056818 
0.00404887 
0.00368095 
0.00408824 
0.000585231 
0.00132177 
-0.00112738 
0.000601088 
0.00217363 
0.00455016 
0.00593147 
0.00228985 
0.00149885 
0.00414334 
0.00291466 
0.00432455 
0.00644911 
0.00277988 
0.00369281 
0.000756844 
0.00208793 
-0.000417482 
-0.000408406 
-0.00034442 
-0.000301893 
-0.0003483 
-0.000372602 
-0.00031667 
-0.000303143 
-0.000251081 
-0.000288015 
-0.000292556 
-0.000268083 
-0.000209625 
-0.000217498 
-0.000284077 
-0.000300797 
-0.000166795 
-0.000244589 
-0.000286288 
-0.000262398 
-0.000200169 
-0.000293774 
-0.00026409 
-0.000278612 
-0.000243282 
-0.000293794 
-0.00022263 
-0.000171443 
-0.000237131 
-0.000283757 
-0.010298 
-0.000124054 
-0.000238134 
0.00201541 
0.00230106 
0.0047351 
0.00222655 
-0.000243229 
-0.000304471 
-0.000307315 
0.00554779 
-0.000202961 
-0.000279395 
-0.000186024 
-0.000329866 
0.010907 
0.0025196 
0.0036485 
0.0086888 
-0.000176691 
6.53933e-05 
-0.000245931 
0.00524357 
-0.0102569 
-0.000237517 
-0.000311664 
-0.000231629 
0.00372569 
-0.000211473 
0.00302086 
-0.000220283 
ITEM: TIMESTEP
4800000
ITEM: NUMBER OF ATOMS
896
ITEM: BOX BOUNDS pp pp ff
-1.7153631884999999e+01 1.8003017117999999e+01
-1.7855467918999999e+01 1.7553981017000002e+01
-3.4618715923000003e+01 3.4618715923000003e+01
ITEM: ATOMS q 
0.00443987 
-0.000451911 
-0.000479832 
0.0077515 
-0.000354193 
0.0088072 
-0.000424076 
-0.000408168 
0.00339934 
-0.000422297 
0.0115553 
0.0100221 
0.000811765 
0.00393762 
0.00455818 
0.00140311 
0.0118531 
0.00358989 
0.00185553 
0.00416515 
0.00756299 
0.00662909 
0.00671186 
0.00672846 
0.00136037 
0.0046347 
0.0022974 
-0.000256249 
0.00305563 
0.00105333 
0.000664606 
0.0019138 
0.00525212 
0.00483328 
0.00349656 
0.00326252 
-0.000214065 
-0.000222758 
-0.000218272 
-0.000156096 
-0.000335619 
-0.000208244 
-0.000189613 
-0.000225176 
-0.000316908 
-0.000299838 
-0.000280239 
-0.000319067 
-0.00013905 
-0.000164792 
-0.000143246 
-0.000191847 
-0.000135057 
-0.000125054 
-0.000303338 
-0.000235648 
-0.000216549 
0.00152326 
0.00245314 
0.00235956 
0.000480504 
-0.00560678 
-0.00634413 
-0.00268776 
0.00150664 
0.0135452 
-0.00259851 
-0.0020013 
0.00175782 
-0.000235248 
0.00142821 
0.000390534 
0.00449887 
0.0089122 
0.00745725 
0.00643278 
0.00826982 
0.00484671 
0.0102749 
0.00904587 
0.00325453 
0.00364702 
0.00372172 
0.00233395 
0.00355313 
0.00308039 
0.000596759 
0.00337769 
0.00409308 
-9.12661e-05 
-0.000214833 
-0.000294152 
-0.000328752 
3.88435e-05 
-5.92376e-05 
-0.000229666 
-0.000256121 
-0.000119616 
-6.52656e-05 
-0.000148556 
-0.000188685 
-0.000251208 
-0.000178469 
-0.000196088 
-0.000248004 
-0.000387657 
-0.000353293 
-0.00034609 
-0.000347661 
-0.000406155 
-0.000432573 
-0.000236129 
-0.00029413 
-0.00037006 
-0.000256321 
-0.000261092 
-0.000349954 
-0.00050261 
0.00248151 
0.00155293 
0.00350319 
0.00221988 
0.000317494 
0.00234027 
0.00280787 
0.00293645 
0.00316966 
0.00420917 
0.00787565 
0.00443124 
0.00810882 
0.00909359 
0.00443031 
0.00405869 
0.00373664 
0.00483186 
0.0105505 
0.00191949 
0.00557145 
0.0108899 
0.00490463 
0.00578613 
0.00846605 
0.00788185 
-0.000106487 
-0.000171171 
-0.000272698 
-0.000148079 
-0.000187165 
-0.000250103 
-0.000266957 
-0.000191703 
-0.000184372 
-0.000239293 
-0.000277521 
-0.000291097 
-0.000259499 
-0.000288259 
-0.000304435 
-0.000313422 
-0.000360659 
-0.000421975 
-0.00042834 
-0.000351347 
-0.000355233 
-0.000416632 
-0.000479235 
-0.000351987 
-0.000420303 
-0.000461481 
-0.000480239 
-0.00038038 
-0.000299019 
0.0102583 
-0.000453386 
-0.000405842 
0.00843326 
-0.000433502 
0.00906087 
0.00497267 
0.0031943 
0.00424289 
0.00479968 
-0.000440071 
0.0126102 
-0.000498583 
-0.000427361 
0.00916054 
-0.000387841 
-0.000331473 
0.00746245 
0.00357918 
-0.000502019 
0.0108235 
0.00873532 
0.00587765 
0.00483852 
0.00600626 
0.0128241 
-0.000309468 
0.00822317 
0.00574156 
-0.000392835 
0.0134467 
0.00720354 
-0.000367677 
-0.000543145 
0.00810084 
0.00596169 
-0.000411918 
-0.00044146 
-0.000550412 
0.00677775 
0.00922121 
-0.00044478 
-0.000541097 
0.0129313 
-0.000583064 
-0.000472176 
-0.000516867 
0.00356529 
0.00878971 
-0.000405927 
-0.000421741 
-0.000387332 
-0.000457605 
-0.000455261 
-0.000542806 
-0.00046484 
0.00877358 
0.00819583 
-0.000299112 
-0.00221937 
-3.00916e-05 
-0.000341016 
-0.00080346 
0.00382279 
-0.000337252 
-0.000191996 
0.00282024 
-0.00035125 
0.00945117 
-0.000137008 
2.79786e-05 
-0.000151281 
0.00732322 
-0.000321919 
-0.000331445 
-0.000234237 
-0.000262242 
-0.000182081 
0.00305019 
-4.85151e-05 
-0.00261847 
0.0050572 
1.88312e-05 
0.0095935 
0.0161966 
0.0190121 
0.00962444 
0.00715003 
0.00822549 
0.00717043 
0.00802506 
0.0104915 
0.0129484 
0.00923297 
0.0112247 
0.00731004 
-0.00245742 
0.0090493 
0.0090859 
0.00405088 
0.003919 
0.00824919 
0.00865731 
0.00571228 
0.00289684 
-0.00223996 
0.00220962 
-0.00188696 
-0.000507071 
-0.000557418 
-0.000488815 
-0.000445567 
-0.000491121 
-0.000497755 
-0.000479679 
-0.000459056 
-0.000528475 
-0.00052642 
-0.000503243 
-0.000477644 
-0.000325695 
-0.000319461 
-0.000186506 
-0.00011563 
-0.000366278 
-0.000271671 
-0.000175316 
-0.000180628 
-0.000356046 
-0.000303757 
-0.000196203 
-0.000129182 
0.00406157 
0.00727266 
0.0100049 
0.0111304 
0.00914862 
0.0116174 
0.00925754 
0.00702391 
0.0108343 
0.0072518 
0.00524537 
0.00805762 
0.00965816 
0.0106263 
0.00844746 
0.00717164 
0.0045479 
0.00180123 
0.0058217 
0.0085345 
0.00664916 
0.00495905 
0.00661099 
0.00568472 
0.00671765 
0.00703606 
0.0107439 
0.0099277 
0.00947904 
0.0115762 
-0.00294441 
0.00340911 
0.00703324 
0.00561664 
-0.000550377 
-0.000551534 
-0.000504584 
-0.000451814 
-0.000530856 
-0.000521832 
-0.00045876 
-0.000415756 
-0.000497657 
-0.000480454 
-0.000432701 
-0.000450731 
-0.000562514 
-0.000517449 
-0.000516128 
-0.000599135 
-0.000346589 
-0.000273638 
-0.00014571 
-0.000117919 
-0.000371304 
-0.00032143 
-0.000215727 
-0.000258173 
-0.000436579 
-0.000374874 
-0.000353715 
-0.000373955 
-0.000594577 
-0.000503483 
-0.000438695 
-0.0004053 
-0.000120531 
0.000844727 
-0.00125465 
0.00106592 
0.00287065 
0.0048009 
0.00724595 
-0.00027743 
0.00450438 
0.00291931 
0.00248736 
0.00051028 
0.00651824 
0.0058719 
0.00529698 
0.00417493 
0.00437558 
0.00823327 
0.0022784 
0.00604383 
0.0075453 
0.00813297 
-0.000129204 
-0.000137431 
-0.000186205 
-0.000197055 
-0.000197759 
-0.000207251 
-0.000232916 
-0.000292339 
-0.000153293 
-0.000222517 
-0.000272436 
-0.000276452 
-0.00020395 
-0.000182468 
-4.96807e-05 
-6.97743e-05 
-0.000275981 
-0.000209111 
-9.22757e-05 
-0.000153371 
-0.000291757 
-0.000260798 
-0.000121199 
-0.000133656 
5.84601e-05 
-0.00249585 
-0.000347259 
-0.000260584 
0.00162838 
0.00508891 
-0.000392965 
-0.000302316 
-0.000157116 
-0.000224745 
-0.000347164 
0.00216335 
7.12988e-05 
-0.000263415 
0.0101324 
0.0115764 
-0.000259268 
-0.000341064 
-0.000114083 
-0.000203866 
-0.000340208 
-0.00293671 
0.00344272 
0.00714885 
0.00541915 
0.00792396 
0.00848746 
0.00379727 
0.00213549 
0.00603991 
-4.85065e-05 
-0.000297538 
0.00160947 
-0.00023768 
0.00486997 
-0.000285822 
-0.000394304 
0.00514955 
-0.000314532 
0.00358565 
0.00420906 
-0.000430365 
0.00467442 
-0.000215947 
0.0044456 
-0.000191844 
0.003937 
-0.000259788 
-0.000293033 
0.00256981 
-0.000275457 
-0.000277584 
0.00783884 
0.00277602 
0.0029316 
0.00651331 
0.00338354 
0.0060501 
0.0026226 
0.000972245 
-0.000269229 
0.00259046 
0.00573711 
0.00460557 
0.010044 
0.00704881 
0.00214665 
0.000152691 
0.00340168 
0.00299222 
0.0140113 
0.00696152 
0.00386437 
0.00456774 
0.00760389 
0.00555393 
0.00598693 
0.00517631 
0.00311439 
0.00561264 
0.00653101 
0.00687356 
0.00988784 
0.0116012 
0.00216232 
0.0060274 
0.00804441 
0.00573377 
0.00242978 
0.00377554 
-0.000316383 
-0.00029954 
-0.000307814 
-0.000350464 
-0.000293078 
-0.000261513 
-0.00033558 
-0.000345783 
-0.000380726 
-0.000280791 
-0.000302596 
-0.000280561 
-0.000309029 
-0.000260214 
-0.000370979 
-0.000330082 
-0.000404948 
-0.000424679 
-0.000455245 
-0.000501811 
-0.000322878 
-0.000430188 
-0.000500569 
-0.000291179 
-0.000344574 
-0.000376959 
0.0136587 
0.00405415 
0.0100683 
0.00635566 
0.00374668 
0.00653109 
0.0117827 
0.00441578 
0.00720516 
0.00912587 
0.0122134 
0.00897813 
0.00939644 
0.00812086 
0.00257204 
0.00503499 
0.00196173 
0.00110727 
0.00262961 
-0.000810876 
0.00562233 
-0.00102901 
-0.00612292 
0.000690955 
0.00989553 
0.00587963 
0.00499172 
0.00639824 
-0.000376791 
-0.000219366 
-0.000389894 
-0.000293026 
-0.000246323 
-0.000200216 
-0.000480814 
-0.000357154 
-0.000277531 
-0.000283307 
-0.000391906 
-0.000387768 
-0.000354627 
-0.000321939 
-0.000212033 
-0.000133192 
-0.000182401 
-0.000233458 
-0.000184504 
-9.88518e-05 
-0.000154366 
-0.000241302 
-0.000216636 
-0.000181287 
0.00548256 
-0.000228134 
0.00780914 
0.0106064 
0.00948388 
0.0081995 
0.0101676 
0.0125213 
0.0106295 
0.0029751 
0.00966967 
0.014302 
0.00940399 
0.00491698 
0.00551874 
0.0030073 
0.00530709 
0.00637611 
0.0064884 
0.00589122 
0.00207409 
0.00242438 
0.00446791 
0.00322332 
0.0026351 
0.0033236 
0.000671367 
0.00357196 
0.00667793 
0.0065659 
0.00697403 
0.00503402 
0.00640731 
-0.000483382 
-0.000556876 
-0.00044348 
-0.000497393 
-0.000476355 
-0.000439522 
-0.00037522 
-0.000502264 
-0.000470994 
-0.00036579 
-0.000281015 
-0.000398454 
-0.000422172 
-0.000305926 
-0.000284395 
-0.000296081 
-0.000288685 
-0.000345045 
-0.000406534 
-0.000468835 
-0.00043014 
-0.000245031 
-0.000289701 
-0.000313833 
-0.000319565 
-0.000277092 
-0.000251752 
-0.000301084 
-0.00037016 
-0.000330882 
-0.000380244 
-0.000277124 
-0.000231114 
-0.000192471 
0.00740955 
-0.000315581 
-0.000189453 
0.015809 
0.00526818 
0.00327824 
-0.000312065 
0.00457103 
0.00735294 
-0.000204672 
-0.000460542 
0.00623774 
-0.00097098 
-0.000298272 
-0.000404269 
-0.000336295 
0.00883713 
-0.000191958 
0.00969503 
0.00565702 
-0.000282793 
-0.000282822 
0.00487558 
0.00547715 
-0.000388817 
-0.000283825 
-0.000429031 
0.00902642 
-0.000226072 
-0.000313809 
0.00927365 
0.00855615 
-0.000328933 
0.00404865 
-0.00034709 
-0.000267614 
-0.000262335 
-0.000439379 
0.00709877 
-0.000299694 
-0.000466366 
-0.000449381 
0.0139419 
0.0109008 
0.00862981 
0.00666753 
0.00435292 
0.00275965 
0.00448475 
0.00870105 
0.00988835 
0.00932929 
0.00881955 
0.0130795 
0.0167109 
0.0157292 
0.00936047 
0.00131814 
0.00453266 
0.00319032 
0.00259416 
0.0052283 
0.00382759 
0.00481365 
0.00356042 
0.00288984 
0.00370242 
0.00581022 
0.00868507 
0.00407454 
-0.000481049 
-0.000560326 
-0.000587886 
-0.000537562 
-0.000342559 
-0.000388638 
-0.000394368 
-0.000301688 
-0.000409355 
-0.000370903 
-0.000329531 
-0.000329279 
-0.000427427 
-0.000365697 
-0.000517267 
-0.00059207 
-0.000451466 
-0.000395618 
-0.000302244 
-0.000372391 
-0.000383984 
-0.000371691 
-0.000281753 
-0.000285925 
-0.000322124 
-0.000335143 
-0.000292271 
-0.000307407 
0.00669779 
0.00709002 
0.00520049 
0.00465567 
0.00940081 
0.00684016 
0.00548078 
0.00935918 
0.00855433 
0.0167808 
0.00563898 
0.00660483 
0.00327583 
0.00686373 
0.00504827 
0.00574761 
0.00675966 
0.00556697 
0.00864248 
0.00635251 
0.0116715 
0.0101577 
0.00937382 
0.00911735 
0.00448149 
0.00352277 
0.00655563 
0.00158623 
-0.000419855 
-0.000338953 
-0.000397992 
-0.000377699 
-0.000348869 
-0.000340649 
-0.000446176 
-0.000407485 
-0.000374765 
-0.000419839 
-0.000469742 
-0.000449944 
-0.000467512 
-0.000499922 
-0.000317117 
-0.000338237 
-0.000350929 
-0.000339644 
-0.000337984 
-0.000370976 
-0.000411722 
-0.0003867 
-0.000393213 
-0.000370348 
-0.000393311 
-0.000398609 
-0.000342287 
-0.000268291 
0.0116803 
-0.000398551 
0.00493384 
0.00294769 
0.00580162 
0.00526126 
0.00925767 
0.00803683 
0.00781537 
0.00639356 
0.0101623 
0.00449555 
0.00968505 
0.00961482 
0.00862353 
0.00261688 
0.00849483 
0.00529164 
0.00629504 
0.00533206 
0.00623775 
0.00764813 
0.00106969 
0.00126791 
0.0122559 
0.00617204 
0.0050252 
-0.000364556 
-0.00030401 
-0.000293076 
-0.00035676 
-0.000400218 
-0.00040116 
-0.000382781 
-0.000349024 
-0.000406199 
-0.000420922 
-0.000384147 
-0.00039941 
-0.00045379 
-0.000457679 
-0.00029283 
-0.000171094 
-6.47877e-05 
-0.000157404 
-0.00027405 
-0.000253784 
-0.000139784 
-0.000123072 
-0.000323102 
-0.000205648 
-4.97271e-05 
-7.76772e-05 
-0.000292119 
-5.96132e-05 
0.00521939 
0.00760019 
-0.000362557 
-0.000378793 
0.0158603 
0.0118467 
-0.000200821 
0.00903135 
-0.000756613 
0.00877765 
-0.000450138 
0.00505798 
-0.000339475 
-0.000116915 
-0.000419803 
-0.000409394 
0.0121363 
-0.000188668 
-0.000140225 
-0.000423418 
-6.67624e-05 
0.00757866 
0.0127673 
-0.00024056 
-0.000133936 
0.00834346 
-0.000210918 
0.004954 
0.00424214 
-0.000118319 
0.00537731 
-6.47394e-05 
0.00593559 
-0.000474611 
0.00768088 
ITEM: TIMESTEP
5000000
ITEM: NUMBER OF ATOMS
896
ITEM: BOX BOUNDS pp pp ff
-1.7153631884999999e+01 1.8003017117999999e+01
-1.7855467918999999e+01 1.7553981017000002e+01
-3.4618715923000003e+01 3.4618715923000003e+01
ITEM: ATOMS q 
0.00993009 
0.0116509 
0.0148904 
0.0104886 
0.00833006 
0.00595675 
0.00601172 
0.00737627 
0.0070854 
0.00740485 
0.00797455 
0.00762707 
0.0162066 
0.0160235 
0.0103231 
0.00551736 
0.00951963 
0.012357 
0.00738174 
0.00665259 
0.00308561 
0.00415211 
0.00653006 
0.00555057 
-0.000513102 
-0.000506975 
-0.000547965 
-0.000558852 
-0.000484617 
-0.000440735 
-0.000510569 
-0.000455308 
-0.000425825 
-0.000382679 
-0.000376979 
-0.000310709 
-0.000505576 
-0.000498738 
-0.000386531 
-0.000443869 
-0.000465304 
-0.000442353 
-0.000325709 
-0.00039032 
-0.000456598 
0.00772332 
0.00499401 
0.00686692 
0.00240025 
0.0113418 
0.00758508 
0.00351075 
0.00298655 
0.0114431 
0.00150234 
-0.00217655 
0.000325224 
0.00813348 
0.00539972 
0.00626284 
0.0057092 
0.00287009 
0.00379345 
0.00212227 
0.00729153 
0.00345349 
0.00366344 
0.00722507 
0.00462555 
0.00176825 
0.00493397 
0.00448712 
0.00309975 
0.00149646 
0.00276479 
0.00262626 
0.00333556 
-0.000350716 
-0.000292805 
-0.000270582 
-0.000248431 
-0.000266465 
-0.000240697 
-0.000238184 
-0.000222633 
-0.000253545 
-0.000162348 
-0.000184232 
-0.00018349 
-0.000306167 
-0.000241668 
-0.000203951 
-0.000246609 
-0.000290895 
-0.000324571 
-0.000438308 
-0.00024092 
-0.000304666 
-0.000337783 
-0.000208038 
-0.000239751 
-0.000250404 
-0.000253169 
-0.000229342 
-0.000270815 
0.00364698 
0.00784119 
0.00813591 
0.00409185 
0.0121384 
0.0101169 
0.00786721 
0.01099 
0.00765532 
0.0104451 
0.0131665 
0.0149564 
-0.00337077 
-5.6113e-05 
0.00108735 
0.00309761 
0.00846236 
-0.000134353 
0.00384117 
0.0071784 
0.012152 
0.0095902 
0.00687767 
0.00812512 
0.00592478 
0.00825971 
0.0121289 
-0.000378928 
-0.000503432 
-0.000505879 
-0.000358906 
-0.000287644 
-0.00015172 
-0.000149872 
-0.000512252 
-0.000419632 
-0.000321174 
-0.000399268 
-0.000621954 
-0.000586889 
-0.000544076 
-0.000498758 
-0.000163927 
-0.000183911 
-0.000298016 
-0.000331095 
-0.000346581 
-0.000268677 
-0.000337886 
-0.000420949 
-0.000405466 
-0.000422745 
-0.000434107 
-0.000501486 
-0.00034824 
0.00342345 
-0.000314009 
-0.000473974 
-4.4503e-05 
-0.000233241 
0.00308873 
-0.002292 
-0.000450889 
-0.000198342 
6.17977e-06 
-0.0001266 
0.00207663 
-0.00293277 
-0.000152339 
-0.000379674 
0.00956932 
-0.000263876 
-0.000331336 
0.00517341 
-0.000190662 
-0.00101201 
0.00201867 
-0.000348809 
-0.000281241 
-0.000161971 
-0.000248628 
0.0064177 
0.0132012 
-0.000253302 
-0.000279401 
-0.000484418 
0.00730967 
-0.000329775 
0.00502165 
0.00320579 
0.00214897 
0.0102022 
-1.24644e-05 
0.00260001 
-0.0204756 
-0.0147645 
-0.000138207 
0.0081982 
-0.00227236 
0.00674348 
-0.000144883 
-3.578e-05 
-0.000229626 
-0.00330944 
0.00431339 
0.00677997 
1.84002e-05 
0.00119137 
-0.000311967 
0.00108726 
0.00412069 
-0.00606165 
0.0101829 
-0.000227642 
6.78831e-05 
0.00600609 
-0.000609712 
0.00329564 
0.000204018 
0.000155818 
0.00497048 
-0.000142684 
0.00670199 
0.00574731 
0.0192485 
-0.000308843 
0.0109726 
0.0121714 
0.00784361 
0.00843981 
0.00747496 
0.00118958 
0.0093959 
0.00569774 
0.00537235 
0.00447077 
0.0066876 
0.00453029 
0.00363846 
-0.00119259 
-0.000930863 
0.000704888 
0.00207278 
0.00231993 
0.00284572 
0.00280107 
0.00417554 
0.00373393 
0.00243673 
0.00598699 
-0.000379433 
-0.000392154 
-0.00033308 
-0.000245687 
-0.000367527 
-0.000342328 
-0.00024029 
-0.000163814 
-0.000476712 
-0.000354662 
-0.000249519 
-0.000274367 
-0.000194838 
-0.000284778 
-0.000262158 
-0.000201081 
-0.000141357 
-0.000148662 
-0.000167791 
-0.00015411 
-0.00022545 
-0.000185493 
-0.000182115 
-0.000229772 
0.0168879 
0.0121832 
0.0177235 
0.00373277 
0.0167458 
0.00961119 
0.00370964 
0.00528798 
0.00278063 
0.00395395 
0.00200387 
0.00155654 
0.00879287 
0.00190261 
0.00323981 
0.00547867 
0.00717803 
0.00761403 
0.00425565 
0.00634605 
0.00491336 
0.00583091 
0.00690693 
0.00554746 
0.00287426 
0.00397416 
0.00384641 
-0.00156272 
0.0073414 
0.00657393 
0.00153537 
-0.000969615 
-0.000512213 
-0.000545525 
-0.000440432 
-0.000441433 
-0.000308622 
-0.000490974 
-0.000483087 
-0.000394765 
-0.000187568 
-0.000286838 
-0.000337491 
-0.000257007 
-0.000101786 
-0.000167184 
-0.000188605 
-0.000145249 
-0.000331384 
-0.000267962 
-0.000275639 
-0.000304693 
-0.000360713 
-0.000346133 
-0.000318249 
-0.000292086 
-0.0002486 
-0.000307348 
-0.000264544 
-0.000188485 
-0.000127025 
-0.000175251 
-0.000145841 
-9.42498e-05 
0.00437646 
0.0082975 
0.00603919 
0.00248531 
0.00311442 
-0.000213326 
0.00203739 
-0.00273906 
-0.0059981 
0.00581325 
0.00828342 
0.0110426 
0.00921133 
0.00337415 
0.00651475 
0.00489985 
0.00470066 
-0.00721789 
-0.00176213 
-0.00105995 
-0.000636982 
-0.000234989 
-0.000295109 
-0.000290147 
-0.000282095 
-0.000124554 
-0.000183891 
-0.000215923 
-0.000134257 
-0.00012631 
-4.72059e-05 
-1.49937e-05 
-6.54403e-06 
-0.000277198 
-0.000223935 
1.88357e-05 
-0.000107392 
-0.000131746 
-0.000186531 
-6.16928e-05 
-0.000185071 
-5.5695e-05 
-4.5275e-05 
-6.39758e-05 
-0.000202153 
-0.00208841 
-9.53577e-05 
0.00816701 
1.34218e-05 
-0.000248123 
-0.000255307 
0.00381086 
0.00419142 
0.000136781 
-0.000294263 
-8.05583e-05 
1.06997e-05 
-0.000127781 
0.00154609 
-0.000105603 
-5.64577e-05 
-0.000154971 
0.00332656 
-0.000130035 
-0.000248658 
-0.0002635 
-9.44414e-05 
0.00262999 
0.00404437 
-0.000124629 
0.00470138 
0.0010992 
-0.0035669 
0.00203207 
3.1613e-05 
-0.000259724 
0.00674737 
-0.000153547 
0.00860784 
-0.000264427 
-0.000263797 
-0.000192503 
0.00186888 
-0.000176857 
-0.000114522 
0.00948249 
0.00118167 
0.000876566 
0.0007621 
0.00181348 
0.00368812 
-0.000115208 
-0.000115972 
0.00879408 
0.00107003 
0.00843137 
0.00333217 
-0.000102473 
0.0102374 
-0.000276821 
0.0100487 
-9.1134e-05 
-9.35122e-05 
-0.000176261 
-5.60996e-05 
0.0039578 
0.00382332 
0.00416437 
0.00823516 
0.00795978 
0.00233308 
0.00719162 
0.00987105 
0.00480624 
0.00323797 
0.00581359 
0.0114796 
0.0013443 
0.00698982 
0.0113902 
0.00179653 
0.00315867 
0.0073291 
0.0126643 
0.0139768 
0.0141041 
0.0171393 
0.00921641 
0.0079193 
0.0092831 
0.00215152 
0.000286036 
-0.0024696 
-0.000336215 
-0.000298701 
-0.000327182 
-0.000448826 
-0.00037799 
-0.000368465 