ITEM: TIMESTEP
2000000
ITEM: NUMBER OF ATOMS
896
ITEM: BOX BOUNDS pp pp ff
-1.7153631884999999e+01 1.8003017117999999e+01
-1.7855467918999999e+01 1.7553981017000002e+01
-3.4618715923000003e+01 3.4618715923000003e+01
ITEM: ATOMS q 
0 
0 
0 
0 
0 
0 
0 
0 
0 
0 
0 
0 
0 
0 
0 
0 
0 
0 
0 
0 
0 
0 
0 
0 
0 
0 
0 
0 
0 
0 
0 
0 
0 
0 
0 
0 
0 
0 
0 
0 
0 
0 
0 
0 
0 
0 
0 
0 
0 
0 
0 
0 
0 
0 
0 
0 
0 
0 
0 
0 
0 
0 
0 
0 
0 
0 
0 
0 
0 
0 
0 
0 
0 
0 
0 
0 
0 
0 
0 
0 
0 
0 
0 
0 
0 
0 
0 
0 
0 
0 
0 
0 
0 
0 
0 
0 
0 
0 
0 
0 
0 
0 
0 
0 
0 
0 
0 
0 
0 
0 
0 
0 
0 
0 
0 
0 
0 
0 
0 
0 
0 
0 
0 
0 
0 
0 
0 
0 
0 
0 
0 
0 
0 
0 
0 
0 
0 
0 
0 
0 
0 
0 
0 
0 
0 
0 
0 
0 
0 
0 
0 
0 
0 
0 
0 
0 
0 
0 
0 
0 
0 
0 
0 
0 
0 
0 
0 
0 
0 
0 
0 
0 
0 
0 
0 
0 
0 
0 
0 
0 
0 
0 
0 
0 
0 
0 
0 
0 
0 
0 
0 
0 
0 
0 
0 
0 
0 
0 
0 
0 
0 
0 
0 
0 
0 
0 
0 
0 
0 
0 
0 
0 
0 
0 
0 
0 
0 
0 
0 
0 
0 
0 
0 
0 
0 
0 
0 
0 
0 
0 
0 
0 
0 
0 
0 
0 
0 
0 
0 
0 
0 
0 
0 
0 
0 
0 
0 
0 
0 
0 
0 
0 
0 
0 
0 
0 
0 
0 
0 
0 
0 
0 
0 
0 
0 
0 
0 
0 
0 
0 
0 
0 
0 
0 
0 
0 
0 
0 
0 
0 
0 
0 
0 
0 
0 
0 
0 
0 
0 
0 
0 
0 
0 
0 
0 
0 
0 
0 
0 
0 
0 
0 
0 
0 
0 
0 
0 
0 
0 
0 
0 
0 
0 
0 
0 
0 
0 
0 
0 
0 
0 
0 
0 
0 
0 
0 
0 
0 
0 
0 
0 
0 
0 
0 
0 
0 
0 
0 
0 
0 
0 
0 
0 
0 
0 
0 
0 
0 
0 
0 
0 
0 
0 
0 
0 
0 
0 
0 
0 
0 
0 
0 
0 
0 
0 
0 
0 
0 
0 
0 
0 
0 
0 
0 
0 
0 
0 
0 
0 
0 
0 
0 
0 
0 
0 
0 
0 
0 
0 
0 
0 
0 
0 
0 
0 
0 
0 
0 
0 
0 
0 
0 
0 
0 
0 
0 
0 
0 
0 
0 
0 
0 
0 
0 
0 
0 
0 
0 
0 
0 
0 
0 
0 
0 
0 
0 
0 
0 
0 
0 
0 
0 
0 
0 
0 
0 
0 
0 
0 
0 
0 
0 
0 
0 
0 
0 
0 
0 
0 
0 
0 
0 
0 
0 
0 
0 
0 
0 
0 
0 
0 
0 
0 
0 
0 
0 
0 
0 
0 
0 
0 
0 
0 
0 
0 
0 
0 
0 
0 
0 
0 
0 
0 
0 
0 
0 
0 
0 
0 
0 
0 
0 
0 
0 
0 
0 
0 
0 
0 
0 
0 
0 
0 
0 
0 
0 
0 
0 
0 
0 
0 
0 
0 
0 
0 
0 
0 
0 
0 
0 
0 
0 
0 
0 
0 
0 
0 
0 
0 
0 
0 
0 
0 
0 
0 
0 
0 
0 
0 
0 
0 
0 
0 
0 
0 
0 
0 
0 
0 
0 
0 
0 
0 
0 
0 
0 
0 
0 
0 
0 
0 
0 
0 
0 
0 
0 
0 
0 
0 
0 
0 
0 
0 
0 
0 
0 
0 
0 
0 
0 
0 
0 
0 
0 
0 
0 
0 
0 
0 
0 
0 
0 
0 
0 
0 
0 
0 
0 
0 
0 
0 
0 
0 
0 
0 
0 
0 
0 
0 
0 
0 
0 
0 
0 
0 
0 
0 
0 
0 
0 
0 
0 
0 
0 
0 
0 
0 
0 
0 
0 
0 
0 
0 
0 
0 
0 
0 
0 
0 
0 
0 
0 
0 
0 
0 
0 
0 
0 
0 
0 
0 
0 
0 
0 
0 
0 
0 
0 
0 
0 
0 
0 
0 
0 
0 
0 
0 
0 
0 
0 
0 
0 
0 
0 
0 
0 
0 
0 
0 
0 
0 
0 
0 
0 
0 
0 
0 
0 
0 
0 
0 
0 
0 
0 
0 
0 
0 
0 
0 
0 
0 
0 
0 
0 
0 
0 
0 
0 
0 
0 
0 
0 
0 
0 
0 
0 
0 
0 
0 
0 
0 
0 
0 
0 
0 
0 
0 
0 
0 
0 
0 
0 
0 
0 
0 
0 
0 
0 
0 
0 
0 
0 
0 
0 
0 
0 
0 
0 
0 
0 
0 
0 
0 
0 
0 
0 
0 
0 
0 
0 
0 
0 
0 
0 
0 
0 
0 
0 
0 
0 
0 
0 
0 
0 
0 
0 
0 
0 
0 
0 
0 
0 
0 
0 
0 
0 
0 
0 
0 
0 
0 
0 
0 
0 
0 
0 
0 
0 
0 
0 
0 
0 
0 
0 
0 
0 
0 
0 
0 
0 
0 
0 
0 
0 
0 
0 
0 
0 
0 
0 
0 
0 
0 
0 
0 
0 
0 
0 
0 
0 
0 
0 
0 
0 
0 
0 
0 
0 
0 
0 
0 
0 
0 
0 
0 
0 
0 
0 
0 
0 
0 
0 
0 
0 
0 
0 
0 
0 
0 
0 
0 
0 
0 
0 
0 
0 
0 
0 
0 
0 
0 
0 
0 
0 
0 
0 
0 
0 
0 
0 
0 
0 
0 
0 
0 
0 
0 
0 
0 
0 
0 
0 
0 
0 
0 
0 
ITEM: TIMESTEP
2200000
ITEM: NUMBER OF ATOMS
896
ITEM: BOX BOUNDS pp pp ff
-1.7153631884999999e+01 1.8003017117999999e+01
-1.7855467918999999e+01 1.7553981017000002e+01
-3.4618715923000003e+01 3.4618715923000003e+01
ITEM: ATOMS q 
-4.76725e-05 
-0.000116323 
-5.69934e-05 
-8.79744e-06 
6.62386e-05 
-6.3954e-06 
4.11869e-05 
0.000117593 
8.17285e-05 
-7.69752e-07 
0.000105636 
0.000228496 
5.4469e-05 
0.000195238 
-1.46761e-05 
-1.78171e-05 
5.04199e-05 
7.01244e-05 
0.000118297 
4.07889e-05 
5.09143e-05 
6.85134e-05 
0.000352824 
0.000244068 
0.000195342 
0.000185175 
0.000378851 
0.000291039 
-0.00245333 
-0.00310486 
0.003242 
0.00175087 
-0.0114827 
-0.00172448 
0.000126863 
-0.00364173 
-0.00196482 
-0.00101374 
-0.00189319 
-0.0122283 
-0.00185484 
-0.00919072 
0.00052329 
-0.00204519 
-0.00668316 
-0.00220874 
-0.000791298 
0.000242888 
-0.0159115 
-0.00519286 
-0.000835507 
-0.0112782 
-0.000195156 
0.000161701 
0.00040426 
0.000209385 
0.000138815 
0.000333015 
0.000354049 
0.000176292 
5.50442e-05 
8.17406e-05 
-7.69115e-05 
0.000183913 
-1.15297e-05 
-0.000185466 
-0.000179855 
0.000476191 
0.000130889 
0.000454772 
0.000441517 
0.000174129 
6.03434e-05 
-7.50127e-05 
0.000157334 
5.60676e-05 
-6.38023e-05 
-0.000246658 
-0.000227861 
-0.000163005 
-0.000172929 
-0.00378985 
-0.0137087 
-0.00376485 
-0.0072317 
-0.0243284 
-0.0243786 
0.00543095 
-0.00124598 
-0.00563291 
0.00473601 
0.00188165 
0.00781215 
0.0101464 
0.00560624 
-0.00732924 
-0.00626289 
0.00119255 
0.00196989 
0.00135271 
-0.00108011 
-0.000965687 
0.00750454 
0.00486274 
0.000338732 
0.000209315 
0.00024488 
0.000391941 
0.000437423 
6.94777e-05 
0.00022286 
0.000379786 
0.000268934 
2.85307e-05 
3.73615e-05 
7.30167e-05 
0.000132777 
3.0723e-05 
0.000116145 
0.000429876 
0.000342069 
0.000225115 
0.000240836 
0.000385161 
0.000464583 
0.000409135 
0.000358427 
0.000188981 
0.000275603 
0.000329781 
0.000231023 
0.000237765 
0.000198268 
-0.00390156 
0.000354382 
0.00269906 
-0.0163012 
-0.0154676 
-0.00841119 
-0.0139258 
0.000560525 
-0.0130431 
-0.0148702 
-0.00759562 
0.0013644 
0.00160364 
0.00106839 
-0.000459998 
-0.00453 
-0.0137189 
-0.00717486 
-0.0020977 
5.05402e-06 
-0.0180909 
-0.015412 
-0.00613914 
-0.000455311 
-0.00622778 
-0.00950104 
-0.0020538 
-0.00455908 
1.59914e-05 
0.000191699 
-2.88464e-05 
-1.48953e-05 
7.20259e-05 
0.000130177 
-2.48792e-05 
-1.64311e-05 
3.97401e-05 
6.71524e-05 
-7.65364e-05 
-1.95976e-05 
2.10132e-05 
-4.49721e-05 
0.000293271 
0.000199423 
0.000262257 
0.000285993 
0.000236965 
0.000164981 
9.57229e-05 
0.000191035 
0.000161684 
4.95514e-05 
-7.75058e-05 
8.34862e-06 
-6.60479e-06 
-8.05013e-05 
0.00220754 
0.00134512 
-0.00163122 
-0.000125589 
8.75239e-05 
-0.0120412 
0.00177833 
0.000329852 
-0.00595443 
-0.0121995 
-0.00024884 
0.00106424 
-0.00427511 
-0.00262995 
-0.00478371 
-0.0036988 
0.000397994 
0.000248024 
-0.0047141 
-0.00907298 
-0.00522441 
-0.00532587 
-0.0046755 
-0.00557774 
-0.00155194 
0.000573251 
0.00062639 
0.00116242 
7.65599e-05 
6.46245e-05 
-7.22284e-05 
-0.000125003 
0.000199281 
5.88252e-05 
-5.58514e-05 
-2.72747e-05 
0.00024037 
0.0001716 
6.34019e-05 
0.000161586 
0.000192217 
0.000223084 
-0.000150768 
-0.00016954 
-0.00021457 
-0.000216156 
-5.49911e-05 
-0.000125793 
-0.000169896 
-8.75888e-05 
0.00018422 
6.28958e-05 
7.04096e-05 
0.000205483 
0.000372436 
0.0003961 
-0.000162621 
-4.47053e-05 
0.000138633 
0.000840428 
-0.00581915 
-0.00663367 
0.00347203 
0.0045741 
0.00572833 
0.00222583 
0.00183255 
-0.000397338 
0.000327007 
0.000768185 
-0.00432198 
0.00041069 
0.00117147 
-0.00279971 
-0.00766575 
-0.00802252 
0.00187056 
0.00604342 
0.00721799 
0.0040952 
0.00160171 
0.00438547 
0.00730244 
0.00320808 
-0.00621269 
-0.00260362 
-0.00146202 
-0.00239165 
-0.0131297 
-0.00924246 
0.000172998 
0.000215408 
5.24964e-05 
8.61827e-05 
9.47091e-05 
8.38936e-05 
2.63786e-05 
2.94535e-05 
4.23227e-05 
7.85712e-05 
1.23563e-05 
6.7196e-05 
0.000126874 
0.000283866 
0.0003625 
0.000431548 
0.00019215 
0.000367084 
0.000455785 
0.000302252 
9.10926e-05 
0.000149675 
0.000177037 
0.000100615 
0.000231595 
0.000100766 
8.45265e-05 
0.000113542 
0.000287966 
0.00023271 
0.000111595 
0.000126041 
-0.00425743 
0.00251013 
-0.000152024 
0.000513084 
-0.00371513 
-0.00856783 
0.00272233 
0.000320913 
-0.00313569 
-0.00366423 
-0.00202286 
-0.0012062 
-0.00315549 
-0.00215351 
-0.00488226 
-0.00383168 
-0.00055697 
-0.00192818 
-0.0199623 
-0.00813284 
-0.0053049 
-0.0168066 
-0.0122744 
-0.00466208 
-0.000790758 
-0.00303417 
-0.00442035 
-0.000691815 
-0.00114642 
-0.00108437 
-0.00227078 
-0.00213383 
-0.000141925 
-1.75651e-05 
0.000159725 
-4.96548e-05 
0.000174877 
0.000317568 
5.73558e-05 
0.000166687 
0.000151315 
0.000169918 
7.21479e-05 
0.000241947 
9.99588e-05 
7.5522e-05 
0.000154064 
0.000515387 
0.000409623 
0.000312804 
0.000402326 
0.000230744 
0.000418834 
0.000391548 
0.000333732 
0.00013216 
0.000179718 
0.000215343 
0.000474277 
0.000463696 
-0.0053894 
-0.00192744 
-0.00438806 
-0.0152282 
-0.0248449 
0.00110066 
-0.00258852 
-0.00944464 
-0.00335716 
0.000235266 
0.000688738 
-0.00462274 
-0.00126735 
-0.00286079 
-0.00297451 
-0.0131003 
-0.0075533 
-0.00302583 
-0.00817394 
-0.0062782 
-0.0103588 
-0.0108224 
-0.00932899 
-0.00321178 
-0.00444197 
6.22028e-05 
0.000212202 
9.58956e-05 
9.38634e-05 
0.000129773 
0.000106286 
0.0001294 
0.000105264 
0.000139552 
0.000127015 
4.92524e-05 
0.000230145 
0.000116135 
0.000102586 
0.000167727 
0.000290984 
0.000195027 
0.000189296 
0.000228907 
0.000366805 
0.00018389 
0.000257474 
0.000312568 
0.000449172 
-0.00215107 
0.00110532 
-0.000928832 
-0.00340684 
-7.46418e-05 
-0.000917163 
-0.00185781 
-0.00109617 
-0.00500268 
-0.00531255 
-0.00166007 
-0.00603782 
-0.00546381 
0.00155579 
-2.16522e-05 
-0.00369703 
-0.00509746 
-0.0051183 
-0.00771327 
-0.007339 
-0.00276013 
-0.00776606 
-0.00654796 
0.000857035 
-0.00945908 
-0.0103557 
-0.0116177 
-0.0106906 
-1.69412e-05 
-2.57915e-05 
-5.88105e-05 
-2.91151e-05 
-0.00012273 
-0.00010991 
3.37992e-05 
7.92974e-05 
9.3895e-06 
6.26918e-05 
0.000180854 
0.000178233 
1.74625e-05 
0.000114229 
0.000173373 
5.61995e-05 
-0.000132106 
-0.00021674 
-0.000221832 
-0.000162628 
-2.45967e-05 
-0.000130117 
-0.000143561 
-2.01341e-05 
0.000172923 
9.48493e-05 
0.00010274 
0.000250224 
5.29962e-05 
0.000174203 
0.000274497 
0.000264296 
-0.0124114 
-0.00197206 
0.000754306 
0.00190466 
-0.0116369 
-0.005464 
0.00198661 
0.00472092 
-0.0146141 
-0.00848967 
-0.00177685 
-0.00359588 
0.00371699 
-0.00803155 
-0.00441293 
0.00267116 
0.00482214 
0.00417778 
0.00373458 
0.00559659 
0.00379556 
0.000362035 
-0.0103853 
-0.00321425 
-0.00446611 
-0.0011156 
-0.0118248 
-0.0107258 
7.1461e-05 
0.000108436 
5.38141e-05 
3.97994e-05 
4.23572e-05 
0.000118095 
0.000120995 
2.78931e-05 
-7.49369e-05 
3.28242e-05 
-1.01527e-05 
-6.01345e-05 
-4.69285e-05 
-1.47227e-05 
8.33844e-05 
7.06899e-05 
-2.26367e-05 
-4.64235e-05 
-3.78249e-05 
2.03466e-05 
-3.40672e-05 
-2.86726e-05 
3.6278e-06 
2.52775e-05 
-0.00481793 
-0.00043152 
0.00234671 
0.00241811 
0.002975 
-0.0109758 
-0.00402895 
0.000700904 
-0.00143379 
0.00142552 
0.00108218 
0.00214438 
0.00521364 
0.00124789 
-0.00729353 
0.00170246 
0.00244432 
0.000219934 
-0.0039399 
-0.0022197 
-0.00081409 
-0.000139333 
-0.000102161 
-0.000100187 
-0.000172567 
1.38472e-05 
-9.00626e-05 
-0.000136026 
-0.000133762 
0.000234169 
0.000106079 
3.39583e-06 
-1.35473e-05 
0.000360664 
0.000311776 
0.000173521 
0.000150768 
-0.000217129 
-0.000168669 
-0.000155608 
-0.000197793 
-0.000229309 
-0.000263569 
-0.000270355 
-0.000241238 
-0.000177831 
-0.000243969 
-0.000249907 
-0.000201276 
-2.11566e-05 
-0.000149562 
-0.000183341 
-9.36351e-05 
0.00254621 
-0.00120584 
-0.00752609 
-0.0124116 
0.00372739 
0.00204639 
0.00275129 
0.00448198 
-0.00277417 
0.00287301 
0.00564503 
0.00416989 
-0.00399542 
-0.00187034 
0.00269983 
0.00733531 
-0.0114681 
-0.00540917 
0.000528555 
0.00115269 
0.00441643 
0.00303131 
0.0044344 
0.00469303 
0.0082972 
0.00689665 
0.00775855 
0.0040157 
0.00253982 
0.00235014 
0.00418008 
0.00246952 
0.000239895 
0.000341719 
0.000297758 
0.000242144 
0.000120266 
0.000243893 
0.000315881 
0.000167817 
0.000104481 
0.00013967 
0.000124117 
0.000173156 
8.85885e-05 
-7.20009e-06 
-4.02102e-05 
6.39788e-05 
0.000117308 
0.000108875 
0.00013023 
0.000278087 
0.000175079 
0.000125996 
0.000264997 
0.000251873 
-0.00703615 
-0.000757514 
-0.0055814 
-0.0122277 
-0.00817304 
-0.00175946 
0.000162581 
-0.0113773 
-0.0154556 
-0.00230922 
-0.00115053 
-0.00191682 
0.00112529 
0.0011732 
0.00107621 
0.0003949 
0.00014606 
-7.86363e-05 
-0.00429602 
-0.000958976 
-0.00326118 
-0.00452542 
-0.010839 
-0.00931317 
-5.75846e-05 
0.000112223 
0.000345544 
0.000335385 
-0.000146375 
-2.01457e-05 
0.000164988 
0.000231406 
-9.49338e-05 
-5.21164e-05 
0.0001391 
0.000255923 
-4.61301e-05 
-1.95097e-05 
0.000125167 
8.93817e-05 
0.000391405 
0.000301184 
0.000196781 
0.000334892 
0.000393814 
0.000386928 
0.000434648 
0.000477646 
0.000447583 
0.000474773 
0.000491073 
0.000358823 
0.00014715 
0.000344045 
0.000289646 
6.61497e-05 
0.000358927 
0.000481345 
0.000209647 
-2.89506e-05 
0.0040469 
0.0020954 
0.00255116 
-0.000312132 
-0.00845006 
-0.0179031 
-0.0187754 
-0.0123194 
0.00354884 
-0.00256844 
-0.00750488 
-0.00736264 
-0.00299736 
-0.00211236 
-0.00882503 
-0.0183485 
-0.000409037 
-0.00336836 
-0.00804774 
-0.00356638 
-0.00470858 
-0.00179809 
-0.00107592 
-0.0110059 
-0.0114702 
-0.00730249 
-0.0145395 
-0.0155033 
-0.0183268 
-0.0123485 
-0.00647505 
-0.00255458 
-0.00528547 
-0.00721904 
-0.00136184 
0.00137508 
9.46773e-05 
1.91906e-05 
1.65091e-05 
8.88945e-05 
0.000429252 
0.000318132 
0.000309206 
0.000298108 
0.000247732 
0.000397536 
0.000326514 
8.31518e-05 
2.84378e-05 
3.6974e-05 
7.25375e-06 
-9.08654e-05 
7.79462e-05 
2.21856e-05 
-6.61399e-05 
-9.1045e-05 
-5.90573e-05 
-6.50493e-06 
-6.7491e-05 
-0.000137083 
-0.000142647 
-0.000125222 
-0.00014294 
-0.00160115 
-0.0146027 
-0.00491853 
-0.000475524 
0.00320822 
0.00293671 
0.00104434 
-0.0276285 
-0.0102871 
-0.00290751 
-0.00342188 
-0.00289567 
-0.00966508 
-0.00111427 
0.00391163 
-0.00193927 
0.000253379 
0.00461135 
0.00314261 
0.000989921 
0.000974292 
0.00320884 
0.00246395 
-1.9231e-05 
0.000632771 
0.000732425 
0.00154357 
0.000223455 
0.000183923 
0.000231535 
0.000439629 
0.000381586 
0.000350871 
0.00033586 
0.000294 
0.00014934 
4.59165e-05 
1.32795e-05 
-5.34676e-05 
0.000155635 
0.00019972 
0.000326427 
0.00031339 
0.000260046 
0.000205053 
0.000173972 
0.000128332 
0.000152654 
0.000191747 
0.000126196 
-3.31192e-05 
-6.94352e-05 
-1.46249e-06 
-7.10882e-05 
-0.00016011 
-0.0114626 
-0.00130238 
-0.000122761 
0.000362055 
-0.0147245 
-0.0140629 
-0.000539523 
-0.00911476 
-0.00118725 
-0.00163545 
-0.0115366 
-0.007978 
0.00089803 
-0.000144353 
0.00156236 
0.00197217 
0.000311791 
-0.0149665 
-0.0143305 
-0.0115264 
-0.00730269 
0.00130989 
-0.00632823 
-0.00823656 
-0.00654136 
-0.00882468 
0.00311962 
0.00366714 
0.00673988 
0.00503022 
0.0019281 
0.00572749 
-0.000119138 
-0.000100509 
-4.20001e-05 
-0.000138677 
-6.87009e-05 
-1.22974e-05 
-0.000115451 
-8.70777e-05 
-4.39387e-05 
2.41743e-05 
-5.59382e-05 
-8.18298e-05 
-7.60139e-05 
6.27517e-05 
4.83097e-05 
-5.47532e-06 
-4.19501e-05 
1.1904e-05 
2.69663e-05 
4.1185e-06 
-3.16335e-05 
0.00371287 
0.00348492 
-0.000538181 
-0.00477373 
0.0021117 
0.00101766 
-0.00300878 
-0.0085115 
0.00252513 
0.00346683 
0.000298633 
0.000356016 
-0.00574185 
0.000936323 
0.00217635 
0.00314782 
-0.00398779 
-5.21355e-05 
0.00359945 
0.00789486 
-0.00216669 
0.000578103 
0.00109332 
-0.00251662 
ITEM: TIMESTEP
2400000
ITEM: NUMBER OF ATOMS
896
ITEM: BOX BOUNDS pp pp ff
-1.7153631884999999e+01 1.8003017117999999e+01
-1.7855467918999999e+01 1.7553981017000002e+01
-3.4618715923000003e+01 3.4618715923000003e+01
ITEM: ATOMS q 
-8.67631e-05 
-2.55806e-05 
0.000128977 
0.000172503 
-0.000109971 
7.11545e-05 
0.00018227 
0.000153871 
-2.45604e-05 
-2.76609e-05 
0.000114153 
8.26107e-06 
-3.27457e-05 
-5.19908e-05 
0.000193715 
0.000183089 
8.21144e-05 
0.000166705 
0.000160043 
0.000243087 
0.000313324 
0.000225549 
-7.44398e-05 
5.50792e-05 
9.34683e-05 
9.82794e-06 
-0.000107503 
-6.53211e-05 
-0.00989522 
-0.0109878 
-0.00387144 
-0.00542251 
-0.00944991 
-0.005118 
-0.00627747 
-0.00409168 
-0.012547 
-0.0124898 
0.00164456 
0.00221569 
0.000251741 
0.00118813 
-0.011405 
0.00328014 
-0.00255723 
-0.0122677 
-0.0224301 
-0.00358423 
0.00257137 
-0.000946336 
-0.00347836 
0.0006853 
0.00355917 
9.7381e-06 
-0.000102859 
-7.87955e-05 
-9.25373e-05 
-9.26719e-05 
-6.72024e-05 
-0.000178688 
-7.82252e-05 
-2.02604e-05 
3.71623e-05 
-0.000254972 
-0.000204932 
5.8417e-05 
4.57666e-05 
-0.000104407 
-1.47313e-05 
-8.40534e-05 
-8.622e-05 
-4.02582e-05 
-8.65245e-05 
-2.80945e-05 
-9.23524e-05 
-0.00013844 
-0.000101832 
6.04467e-06 
-7.52647e-06 
-2.29139e-05 
3.80984e-05 
-0.00133549 
0.00124443 
-0.00295778 
-0.000969493 
0.000747845 
1.62892e-05 
-0.0124726 
-0.00161812 
-0.00189057 
-0.00247529 
-0.0227307 
-0.0124688 
-0.000962532 
-0.000968949 
-0.00212037 
-0.000214965 
-0.00400036 
-0.0030493 
0.00218081 
0.00497111 
0.00219101 
-0.00792885 
-0.00223924 
-0.000503291 
7.14565e-05 
-4.63752e-05 
-7.09484e-05 
-2.61627e-05 
0.000197297 
0.000151954 
8.63774e-05 
0.000164615 
0.000245282 
0.000342234 
0.000409134 
0.000380382 
0.00030341 
0.000423828 
-0.000116108 
-0.000199917 
-0.000221746 
-0.000184036 
4.07879e-06 
-0.000132382 
-0.000175853 
-0.000180114 
0.000134766 
-1.8616e-05 
-0.000167908 
-0.000155868 
3.33084e-05 
-0.000113545 
-0.00188281 
-0.00384693 
-0.00401532 
-0.00395793 
-0.00508433 
0.000155125 
0.00295583 
-0.00676389 
-0.00252102 
0.000344253 
-0.00139278 
-0.0274281 
-0.0196731 
-0.00986392 
-0.00552205 
-0.0192044 
-0.00982823 
-0.000730417 
0.000229095 
0.0041528 
0.0028466 
0.00163915 
0.00321369 
0.00342196 
0.00290463 
0.00510221 
0.00379359 
0.000433894 
8.75935e-05 
0.000229435 
-4.67345e-05 
7.01409e-05 
0.000113782 
5.80626e-05 
-7.43206e-05 
-4.09968e-05 
3.1111e-05 
-1.39424e-05 
-4.33682e-05 
-6.91816e-05 
-7.24562e-05 
-0.000107725 
0.000106713 
-7.14166e-05 
7.32357e-05 
3.17545e-05 
-1.74512e-05 
3.23196e-05 
1.22177e-07 
5.2791e-05 
6.77185e-05 
0.000116121 
-6.40115e-05 
-2.17193e-07 
9.55989e-05 
7.89498e-05 
-0.00364238 
-6.62701e-05 
-0.00062118 
-0.000236022 
-0.00806618 
-0.00201643 
-0.00322424 
-0.00269459 
-0.00454383 
-0.00516468 
-0.00182173 
-0.0062073 
-0.00508198 
0.00120025 
0.000156141 
-0.000183897 
-0.000477703 
-0.00111349 
0.000691436 
-0.00243971 
-0.0014194 
-0.00273607 
-0.00217788 
-0.00537125 
-0.00472372 
-0.00359121 
-0.00650544 
-0.00962533 
-0.000175654 
-0.00021514 
-0.000203096 
-0.000179946 
-7.47917e-05 
-6.38797e-05 
-6.30075e-05 
4.48852e-05 
-2.58215e-05 
8.94946e-05 
0.000252986 
0.000315158 
0.000131518 
0.000338144 
-0.000246502 
-0.000225029 
-0.000218561 
-0.000251498 
-0.000140362 
-0.000294392 
-0.000320211 
-0.000305457 
0.000164543 
-9.85186e-05 
-0.000268982 
-0.00024072 
7.15742e-05 
-0.000162678 
-0.000164684 
-0.000216318 
-0.000182508 
0.00109403 
0.000566948 
0.00465126 
7.63006e-05 
0.00272783 
0.00175437 
0.0036464 
-0.0107929 
-0.00163129 
0.00471164 
0.00337976 
-0.00974495 
-0.0174367 
-0.00963474 
-0.00809871 
-0.0197965 
-0.0183339 
0.00484075 
0.00231813 
0.0010138 
0.000715941 
0.00850485 
0.0071242 
0.00373981 
0.00262103 
0.00169224 
0.00706887 
0.00391918 
0.00237973 
0.00233125 
0.00734677 
2.0449e-05 
0.000213975 
1.84606e-05 
4.59783e-05 
6.61233e-05 
-2.94346e-05 
0.000137928 
6.20882e-05 
-8.80862e-06 
-1.278e-05 
9.29274e-05 
0.000114324 
5.17577e-05 
0.000109157 
0.000126013 
-0.000186738 
-7.42719e-05 
-4.59633e-05 
-0.000120701 
-0.000199938 
-8.99777e-05 
-0.000130689 
-0.000192282 
-0.000218527 
8.94142e-05 
-5.44898e-05 
-0.000115544 
-5.04202e-05 
-0.000187311 
-0.000203868 
-0.000259803 
-6.04278e-05 
-0.00195554 
-0.000952361 
-0.00882999 
-0.00295966 
-0.00577623 
-0.00512608 
-0.000267839 
-0.00319452 
-0.00209346 
0.00119317 
-0.0048267 
-0.00124336 
0.000805243 
0.000298709 
-0.00222988 
-0.00328394 
-0.00128139 
-0.0029924 
-0.00048168 
0.00769205 
-0.000722041 
-0.00155962 
0.000235865 
0.00225156 
0.000973403 
0.00161214 
0.00584967 
0.00788679 
-0.00176029 
0.0001743 
0.0024091 
-0.00105946 
-0.000124373 
-5.4623e-05 
4.28692e-05 
-0.000133396 
1.78337e-05 
0.000119292 
-0.000124442 
6.13972e-05 
0.000292572 
-8.12171e-05 
0.000220777 
6.80688e-05 
-3.3849e-05 
-9.63896e-05 
-0.000182445 
0.000161018 
5.62565e-05 
-9.5814e-05 
-0.000134618 
0.00042434 
0.000205431 
9.19508e-05 
0.000263807 
0.000589832 
0.000490059 
-0.00200637 
-0.000914931 
-0.00400333 
-0.00525982 
0.00191589 
-0.00336911 
-0.0105405 
-0.00842637 
-0.00198959 
-0.00275271 
-0.00986757 
-0.0111937 
-0.00777 
-0.0228454 
-0.00399851 
-0.00391752 
-0.00187152 
0.00380177 
0.00213618 
0.00437126 
0.00397203 
0.000482101 
-0.00651496 
-0.00130964 
-0.00191963 
-0.00811028 
-0.0192503 
-0.0145587 
0.000361002 
-0.000124081 
9.0329e-05 
0.000101999 
-0.000216129 
-0.000106027 
-5.5342e-05 
-0.000160663 
-7.85691e-05 
6.65394e-05 
0.000642476 
0.000417063 
0.000214766 
0.000440087 
0.00032127 
0.000134113 
7.2213e-05 
0.000114893 
0.00012558 
0.000144605 
0.000190256 
0.000181524 
0.000242685 
0.000120068 
-1.05248e-05 
-0.030298 
0.000885786 
-0.00308655 
-0.0135477 
-0.00571366 
0.00471598 
0.000411132 
-0.00190422 
-0.00136985 
-0.00236476 
0.00237611 
-0.00487468 
-0.0105334 
-0.0188096 
-0.00812251 
-0.00320411 
-0.00842711 
-0.00333838 
0.000836324 
-0.00403625 
-0.00293875 
-0.00323036 
-0.0143659 
-0.00925864 
-0.0124588 
-0.0165279 
-0.00582293 
-0.000126297 
-9.73916e-05 
-5.1513e-05 
-0.000174631 
-0.000146756 
-0.000101673 
-0.000178295 
-0.000144141 
-0.000126919 
-0.000229257 
-9.93115e-05 
9.34789e-06 
1.47969e-05 
-0.000105319 
1.14435e-05 
7.33375e-05 
-0.000123526 
-1.01761e-05 
7.3514e-05 
3.08955e-05 
-0.000125012 
-8.08355e-05 
7.09545e-06 
1.90147e-05 
5.89217e-05 
5.0719e-06 
7.02579e-05 
8.21407e-05 
0.000104484 
0.000116013 
0.000112472 
3.16827e-05 
0.00432102 
0.000648649 
0.00237204 
0.00207235 
-0.00780445 
0.00636042 
0.00593654 
0.00319215 
-0.0127451 
-0.00335073 
0.00533141 
-0.0053224 
-0.0085096 
-0.00108753 
-0.00358007 
-0.00642219 
-0.00417215 
-0.00976861 
-0.00317407 
-0.00325588 
-0.00216315 
-0.00335685 
-0.0101287 
-0.00565804 
-0.00449848 
-0.00471466 
-0.00708574 
-0.00174574 
2.3553e-05 
-0.000125981 
1.7441e-05 
7.88771e-05 
-7.76026e-05 
-0.000104548 
2.89983e-05 
0.000120003 
-0.00011861 
-9.00434e-06 
8.36563e-05 
0.000103706 
5.85842e-05 
4.74399e-05 
-1.27021e-05 
-7.31912e-05 
0.000133576 
3.36894e-05 
-4.18722e-05 
-2.63664e-05 
0.000179107 
0.000122931 
3.1609e-05 
-4.1034e-06 
-0.0133245 
-0.00507731 
-0.00501633 
-0.00348665 
-0.00378036 
-0.00427428 
-0.00337457 
-0.00747813 
-0.00326342 
-0.00338712 
-0.012592 
-0.011954 
-0.000382899 
0.000382863 
0.000681184 
-0.00291375 
0.00187711 
0.000277232 
-0.00292671 
-0.00429904 
-0.000453058 
-9.24556e-06 
-5.82562e-05 
-0.000121201 
-0.0001348 
-1.41017e-05 
-5.19204e-05 
-0.000115611 
-0.000119986 
-1.73012e-05 
-6.32397e-05 
-0.000107482 
-0.000100662 
-1.97708e-05 
-4.41367e-05 
-8.98949e-05 
-2.85608e-05 
-0.000134041 
-6.88037e-05 
-5.49864e-06 
-3.75413e-05 
-0.000115906 
-0.00010673 
-6.55064e-05 
-4.97879e-05 
-7.87894e-05 
-8.31098e-05 
-5.80078e-05 
-5.17507e-05 
-3.82784e-05 
-7.89777e-05 
-7.47358e-05 
-6.90127e-05 
-0.00342598 
-0.00261983 
-0.00252151 
-0.000352561 
0.000154617 
0.000904669 
0.00239781 
0.00291317 
0.000763855 
-0.00012767 
0.000674011 
0.00143851 
0.00359129 
-0.000419752 
-0.00311466 
-0.000748725 
-0.00446037 
0.00193387 
0.000207835 
-0.00142529 
-0.000475108 
-0.00327742 
-0.00260756 
0.00111271 
-0.00253401 
-0.00145756 
-0.00130653 
-0.00265453 
-0.00312978 
0.00096324 
0.00108351 
-0.00157033 
-6.59059e-05 
-4.47758e-05 
4.77595e-06 
1.78347e-05 
-6.32865e-05 
-6.78896e-05 
-5.02155e-05 
-0.000122491 
-0.000104461 
-8.56594e-05 
-0.000142629 
-0.000191596 
8.67112e-05 
4.09343e-05 
-1.20522e-05 
-3.33816e-05 
-0.000178684 
-3.70793e-05 
-6.79439e-05 
-0.00016611 
-0.000254859 
-0.000234476 
-0.00021271 
-0.000237571 
-0.00190227 
-0.0017164 
0.000290749 
-0.00154599 
-0.00233974 
-0.00492255 
-0.0119651 
-0.00252453 
-0.00137237 
0.000997793 
0.00394583 
1.35489e-05 
0.000599255 
0.00414911 
0.00390982 
-0.0114315 
-0.00222448 
0.000886129 
0.00552036 
-0.000409307 
-0.00086452 
0.00220949 
0.00272074 
0.000356912 
2.07646e-05 
7.60869e-05 
0.000160513 
0.000302465 
-1.82632e-08 
6.20408e-05 
0.000254133 
0.000205334 
-2.61333e-05 
3.6429e-06 
2.04567e-05 
1.98202e-05 
-6.29336e-05 
-3.13376e-05 
1.64629e-05 
3.60042e-05 
0.000384838 
0.000196742 
9.32227e-05 
0.000186129 
0.000231657 
0.000313263 
0.000236741 
0.00032493 
4.87809e-05 
8.43283e-05 
0.000215256 
0.00028202 
0.000139023 
0.000134627 
0.000210384 
0.000269046 
0.000162508 
0.000439936 
0.000342982 
0.000293814 
0.00211492 
-0.00103729 
-0.00291582 
0.000133792 
-0.0035857 
-0.00657629 
-0.00962171 
-0.0194521 
-0.000696393 
-0.0117407 
-0.0246756 
-0.005056 
-0.00095409 
-0.00010339 
-0.000919157 
0.00121239 
-0.00308905 
-0.0046891 
-0.00444752 
-0.0103999 
-0.00584213 
-0.00226524 
-0.00286654 
-0.00533698 
-0.00179295 
-0.00414972 
-0.00851158 
-0.0233923 
-0.000585832 
-0.00142479 
-0.0173774 
-0.00941703 
-0.0065214 
-0.00616385 
-0.0107052 
-0.0120537 
-0.000122491 
-9.76434e-05 
-5.50127e-05 
-7.09167e-05 
-0.000150647 
-0.00014646 
-0.000149733 
-0.000125303 
-0.000242157 
-0.0001935 
-0.000161074 
-0.000175229 
1.80198e-05 
0.000129492 
0.000206897 
0.000236361 
-3.45901e-05 
3.31516e-05 
0.000164631 
0.000194937 
-9.36156e-05 
1.44368e-05 
0.000116819 
-1.48205e-05 
0.000283434 
0.000232368 
-1.88773e-05 
0.000298312 
-0.000128798 
0.00337269 
0.00346854 
0.000643085 
-0.00444745 
-0.00102081 
3.92698e-05 
0.00262087 
0.00129057 
-0.000971753 
0.00512294 
0.00163561 
-0.000313978 
-0.000689178 
-0.00368548 
-0.0063875 
-0.00952296 
-0.00930925 
-0.00402062 
-0.00534677 
-0.00971215 
-0.0101523 
-0.00486028 
-0.00934667 
-0.00844715 
-0.00164216 
4.38363e-05 
8.24468e-05 
0.00014246 
0.000296132 
0.000214799 
0.000250537 
0.000358374 
0.000278563 
0.000226129 
0.000267752 
0.000214276 
0.000213135 
0.000162603 
0.000198368 
0.000125717 
-1.92399e-05 
0.000286313 
0.000260788 
0.000204891 
0.000279864 
0.000277571 
0.000392935 
0.000492 
0.000424448 
0.000352845 
0.000386909 
0.000422833 
0.000612589 
-0.00279004 
-0.00437161 
-0.00538523 
-0.00445696 
-0.0133394 
-0.00322478 
-0.00338455 
-0.00427409 
-0.00765518 
-0.00777452 
-0.0035071 
-0.00472773 
-0.00310989 
-0.00352112 
-0.00466506 
-0.0085279 
-0.00492804 
-0.00647048 
0.0039516 
0.00790164 
-0.0189392 
-0.00741969 
-0.000558876 
-0.00591825 
-0.00580613 
-0.0291915 
-0.0162101 
-0.00748687 
-0.0189958 
-0.00847688 
-0.00449509 
-0.0142544 
0.00025134 
0.000206652 
0.000183823 
0.000236429 
0.000172714 
8.20036e-05 
0.000116151 
4.22377e-05 
-4.73344e-05 
0.000247953 
0.000435063 
0.000634229 
0.000624288 
1.30349e-05 
0.000150997 
0.000218968 
2.58034e-05 
-5.43889e-05 
-4.25493e-05 
-8.67074e-05 
-0.000188413 
-0.00800389 
-0.00230047 
-0.00726588 
-0.00571169 
-0.00670725 
-0.00658273 
-0.00210513 
-0.000734654 
0.000159361 
-0.00319481 
-0.00120594 
-0.00311514 
-0.0101594 
-0.0267845 
-0.0247049 
-0.0358431 
0.000876959 
-0.00357321 
-0.00698388 
-0.00129648 
-0.00284635 
0.00154164 
0.00383644 
-0.000707331 
ITEM: TIMESTEP
2600000
ITEM: NUMBER OF ATOMS
896
ITEM: BOX BOUNDS pp pp ff
-1.7153631884999999e+01 1.8003017117999999e+01
-1.7855467918999999e+01 1.7553981017000002e+01
-3.4618715923000003e+01 3.4618715923000003e+01
ITEM: ATOMS q 
5.10757e-05 
0.000129036 
0.00022004 
0.000326672 
0.000128889 
0.000230359 
0.000404278 
0.000261781 
0.000241246 
0.000131195 
9.17701e-05 
-2.21487e-05 
0.000129908 
-3.69812e-05 
0.000270411 
0.000110314 
1.30909e-05 
4.41603e-05 
0.000198885 
0.000230065 
8.50353e-05 
-3.47474e-05 
-8.35108e-05 
-2.22612e-05 
-0.0001077 
-0.000205059 
-0.000133602 
-0.000190295 
-0.0146083 
-0.00638189 
-0.00291111 
-0.00967205 
0.000642083 
-0.0231359 
-0.0144106 
-0.00459691 
0.0048643 
-0.00128351 
-0.00433306 
0.00179063 
0.00177601 
0.000640377 
-0.00416351 
0.00187624 
-0.00373833 
-0.00214176 
-0.0049711 
-0.00233909 
0.00608603 
0.00193226 
0.00369076 
0.00649166 
0.00665624 
0.000162764 
-4.3953e-05 
-4.4855e-06 
3.41226e-05 
2.59927e-05 
9.28102e-05 
-7.56676e-05 
7.06044e-06 
0.000132372 
0.000188304 
-5.92873e-05 
-1.54219e-05 
0.000197334 
0.000214324 
-5.97017e-05 
-9.44483e-05 
8.94661e-05 
8.47063e-06 
2.11704e-05 
0.000121811 
0.000171551 
0.000128502 
0.000155 
0.000200932 
0.000195936 
0.00017759 
0.000182672 
0.000327151 
0.00725881 
-3.96361e-05 
-0.00620296 
-0.00224633 
-0.00165426 
-0.0015513 
-0.0108995 
-0.00548714 
-0.00502497 
-0.00319573 
-0.0138706 
-0.011783 
-0.00608203 
-0.00304193 
0.00126303 
-0.00314267 
-0.00242801 
-0.00417417 
-0.000240799 
-0.0057965 
-0.00962693 
-0.00147896 
-0.00179042 
-0.00651138 
-2.68294e-05 
-0.00012624 
-0.00023743 
-0.000190168 
-9.18363e-05 
-7.09045e-05 
-0.000146973 
-0.000117502 
-0.000168815 
-0.000108013 
-5.64169e-05 
-6.13819e-05 
-0.000140208 
-7.91835e-05 
-0.000103003 
-6.45846e-05 
0.000159343 
0.000401022 
-5.36542e-05 
3.35704e-05 
0.000367934 
0.000490602 
2.99075e-05 
0.000113051 
0.00032317 
0.000305858 
7.82515e-05 
0.000184466 
-0.00524965 
0.00459269 
0.004752 
0.00501951 
0.0085735 
0.00519094 
0.00338702 
-0.000888615 
0.00279503 
0.00525131 
0.00672251 
-0.00306321 
-0.00445742 
0.00173432 
-0.000962798 
0.0019825 
0.00335954 
-0.00292501 
-0.00358016 
-0.00788687 
-0.00172609 
-0.00912864 
-0.030849 
-0.00757263 
-0.0128693 
-0.0117198 
-0.00598733 
-0.00621442 
-9.43483e-05 
-3.98766e-05 
0.000102885 
-1.16037e-05 
-2.91275e-05 
-7.84537e-06 
0.000238404 
0.000150204 
6.23844e-05 
3.25028e-06 
0.00035437 
0.000229833 
8.278e-05 
-4.71859e-05 
5.47642e-06 
0.000124674 
-4.08894e-05 
-1.85617e-05 
-3.43941e-06 
-6.19629e-05 
-0.000125922 
-0.000103446 
-0.000130058 
-0.000121614 
-0.000196354 
-0.000186424 
-0.000163128 
-0.000102195 
-0.000213392 
-0.00273029 
-0.00846923 
-0.0103018 
0.00347268 
-0.000994908 
-0.000743528 
0.00121139 
-0.00100063 
-0.00215039 
-0.00466445 
-0.00465833 
-0.000602998 
0.00396486 
-0.00571029 
-0.00212128 
0.000421337 
0.00726798 
-0.00338381 
0.00190768 
0.000277428 
-0.00124941 
0.00598428 
0.0024738 
0.000985052 
0.00409404 
0.0017302 
-0.000145631 
0.000489567 
0.000321461 
0.000278211 
0.000225006 
0.000546684 
0.000477585 
0.000272432 
0.000239535 
0.000367174 
0.000412975 
0.000324344 
0.000397187 
0.000360535 
0.000463424 
0.000134518 
0.000105617 
-4.68165e-05 
-6.87774e-05 
0.000135161 
6.66155e-05 
-1.83315e-05 
-3.16273e-05 
0.000324388 
0.000143461 
3.73989e-05 
4.16031e-05 
0.00029378 
0.000123104 