ITEM: TIMESTEP
2000000
ITEM: NUMBER OF ATOMS
896
ITEM: BOX BOUNDS pp pp ff
-1.7153631884999999e+01 1.8003017117999999e+01
-1.7855467918999999e+01 1.7553981017000002e+01
-3.4618715923000003e+01 3.4618715923000003e+01
ITEM: ATOMS q 
0 
0 
0 
0 
0 
0 
0 
0 
0 
0 
0 
0 
0 
0 
0 
0 
0 
0 
0 
0 
0 
0 
0 
0 
0 
0 
0 
0 
0 
0 
0 
0 
0 
0 
0 
0 
0 
0 
0 
0 
0 
0 
0 
0 
0 
0 
0 
0 
0 
0 
0 
0 
0 
0 
0 
0 
0 
0 
0 
0 
0 
0 
0 
0 
0 
0 
0 
0 
0 
0 
0 
0 
0 
0 
0 
0 
0 
0 
0 
0 
0 
0 
0 
0 
0 
0 
0 
0 
0 
0 
0 
0 
0 
0 
0 
0 
0 
0 
0 
0 
0 
0 
0 
0 
0 
0 
0 
0 
0 
0 
0 
0 
0 
0 
0 
0 
0 
0 
0 
0 
0 
0 
0 
0 
0 
0 
0 
0 
0 
0 
0 
0 
0 
0 
0 
0 
0 
0 
0 
0 
0 
0 
0 
0 
0 
0 
0 
0 
0 
0 
0 
0 
0 
0 
0 
0 
0 
0 
0 
0 
0 
0 
0 
0 
0 
0 
0 
0 
0 
0 
0 
0 
0 
0 
0 
0 
0 
0 
0 
0 
0 
0 
0 
0 
0 
0 
0 
0 
0 
0 
0 
0 
0 
0 
0 
0 
0 
0 
0 
0 
0 
0 
0 
0 
0 
0 
0 
0 
0 
0 
0 
0 
0 
0 
0 
0 
0 
0 
0 
0 
0 
0 
0 
0 
0 
0 
0 
0 
0 
0 
0 
0 
0 
0 
0 
0 
0 
0 
0 
0 
0 
0 
0 
0 
0 
0 
0 
0 
0 
0 
0 
0 
0 
0 
0 
0 
0 
0 
0 
0 
0 
0 
0 
0 
0 
0 
0 
0 
0 
0 
0 
0 
0 
0 
0 
0 
0 
0 
0 
0 
0 
0 
0 
0 
0 
0 
0 
0 
0 
0 
0 
0 
0 
0 
0 
0 
0 
0 
0 
0 
0 
0 
0 
0 
0 
0 
0 
0 
0 
0 
0 
0 
0 
0 
0 
0 
0 
0 
0 
0 
0 
0 
0 
0 
0 
0 
0 
0 
0 
0 
0 
0 
0 
0 
0 
0 
0 
0 
0 
0 
0 
0 
0 
0 
0 
0 
0 
0 
0 
0 
0 
0 
0 
0 
0 
0 
0 
0 
0 
0 
0 
0 
0 
0 
0 
0 
0 
0 
0 
0 
0 
0 
0 
0 
0 
0 
0 
0 
0 
0 
0 
0 
0 
0 
0 
0 
0 
0 
0 
0 
0 
0 
0 
0 
0 
0 
0 
0 
0 
0 
0 
0 
0 
0 
0 
0 
0 
0 
0 
0 
0 
0 
0 
0 
0 
0 
0 
0 
0 
0 
0 
0 
0 
0 
0 
0 
0 
0 
0 
0 
0 
0 
0 
0 
0 
0 
0 
0 
0 
0 
0 
0 
0 
0 
0 
0 
0 
0 
0 
0 
0 
0 
0 
0 
0 
0 
0 
0 
0 
0 
0 
0 
0 
0 
0 
0 
0 
0 
0 
0 
0 
0 
0 
0 
0 
0 
0 
0 
0 
0 
0 
0 
0 
0 
0 
0 
0 
0 
0 
0 
0 
0 
0 
0 
0 
0 
0 
0 
0 
0 
0 
0 
0 
0 
0 
0 
0 
0 
0 
0 
0 
0 
0 
0 
0 
0 
0 
0 
0 
0 
0 
0 
0 
0 
0 
0 
0 
0 
0 
0 
0 
0 
0 
0 
0 
0 
0 
0 
0 
0 
0 
0 
0 
0 
0 
0 
0 
0 
0 
0 
0 
0 
0 
0 
0 
0 
0 
0 
0 
0 
0 
0 
0 
0 
0 
0 
0 
0 
0 
0 
0 
0 
0 
0 
0 
0 
0 
0 
0 
0 
0 
0 
0 
0 
0 
0 
0 
0 
0 
0 
0 
0 
0 
0 
0 
0 
0 
0 
0 
0 
0 
0 
0 
0 
0 
0 
0 
0 
0 
0 
0 
0 
0 
0 
0 
0 
0 
0 
0 
0 
0 
0 
0 
0 
0 
0 
0 
0 
0 
0 
0 
0 
0 
0 
0 
0 
0 
0 
0 
0 
0 
0 
0 
0 
0 
0 
0 
0 
0 
0 
0 
0 
0 
0 
0 
0 
0 
0 
0 
0 
0 
0 
0 
0 
0 
0 
0 
0 
0 
0 
0 
0 
0 
0 
0 
0 
0 
0 
0 
0 
0 
0 
0 
0 
0 
0 
0 
0 
0 
0 
0 
0 
0 
0 
0 
0 
0 
0 
0 
0 
0 
0 
0 
0 
0 
0 
0 
0 
0 
0 
0 
0 
0 
0 
0 
0 
0 
0 
0 
0 
0 
0 
0 
0 
0 
0 
0 
0 
0 
0 
0 
0 
0 
0 
0 
0 
0 
0 
0 
0 
0 
0 
0 
0 
0 
0 
0 
0 
0 
0 
0 
0 
0 
0 
0 
0 
0 
0 
0 
0 
0 
0 
0 
0 
0 
0 
0 
0 
0 
0 
0 
0 
0 
0 
0 
0 
0 
0 
0 
0 
0 
0 
0 
0 
0 
0 
0 
0 
0 
0 
0 
0 
0 
0 
0 
0 
0 
0 
0 
0 
0 
0 
0 
0 
0 
0 
0 
0 
0 
0 
0 
0 
0 
0 
0 
0 
0 
0 
0 
0 
0 
0 
0 
0 
0 
0 
0 
0 
0 
0 
0 
0 
0 
0 
0 
0 
0 
0 
0 
0 
0 
0 
0 
0 
0 
0 
0 
0 
0 
0 
0 
0 
0 
0 
0 
0 
0 
0 
0 
0 
0 
0 
0 
0 
0 
0 
0 
0 
0 
0 
0 
0 
0 
0 
0 
0 
0 
0 
0 
0 
0 
0 
0 
0 
0 
0 
0 
0 
0 
0 
0 
0 
0 
0 
0 
0 
ITEM: TIMESTEP
2200000
ITEM: NUMBER OF ATOMS
896
ITEM: BOX BOUNDS pp pp ff
-1.7153631884999999e+01 1.8003017117999999e+01
-1.7855467918999999e+01 1.7553981017000002e+01
-3.4618715923000003e+01 3.4618715923000003e+01
ITEM: ATOMS q 
0.0029382 
0.00862245 
-0.00576353 
-0.00224162 
-0.000228546 
0.00736547 
0.000315251 
-0.00296195 
0.00509196 
0.00283244 
-7.70899e-05 
0.00208511 
-0.0049654 
-0.000119102 
-0.000258785 
-0.00021727 
-0.000113336 
0.00151865 
-0.000220666 
-6.32948e-05 
0.00377308 
-0.000219786 
0.00674767 
0.00671373 
0.00941692 
0.0128534 
0.00329102 
0.00713885 
0.00161165 
0.00137711 
0.00257645 
0.00765069 
0.00462241 
0.00347987 
0.00498151 
0.0025219 
-0.00172347 
-0.00318179 
-0.00446282 
0.00339162 
0.000186336 
-0.0070435 
-0.0100838 
0.00107349 
0.00107761 
-0.00245951 
-0.000913706 
-0.000240062 
-0.000197999 
-6.1491e-05 
-6.17773e-05 
-0.000220956 
-0.000179939 
-0.000127245 
-8.39829e-05 
-0.000267559 
-0.000201899 
-0.000149768 
-0.00012866 
4.01172e-05 
4.8467e-05 
-1.01573e-05 
4.97035e-05 
0.000103394 
7.62265e-05 
-5.4727e-05 
4.25566e-05 
2.04259e-05 
0.00617755 
0.00332413 
0.00654809 
0.00699364 
0.00655446 
0.00763782 
0.0114667 
0.0142881 
0.00105135 
0.00613598 
0.0120219 
0.0105861 
0.00509394 
0.00489233 
0.00916583 
0.00714752 
0.00473291 
-0.00100698 
-0.00255816 
-0.000532907 
0.00784656 
0.00450695 
0.000685053 
0.0064613 
0.0122306 
0.00887555 
0.00838377 
0.00731457 
0.00723992 
0.00770079 
0.00438177 
0.00439148 
-0.000377264 
-0.000281655 
-0.000233765 
-0.000255096 
-0.000524277 
-0.000433285 
-0.00040471 
-0.000444712 
-0.000519924 
-0.000494383 
-0.000522138 
-0.000491228 
-0.000466001 
-0.000426118 
-0.000458879 
-0.000409105 
-0.000146575 
-5.32136e-05 
-6.13977e-05 
-0.000355972 
-0.000213986 
-0.000151245 
-0.000412916 
-0.000378441 
-0.000315072 
-0.000368565 
-0.000352622 
-0.000302674 
0.000967868 
-1.72675e-05 
-0.000481208 
-0.00111306 
0.00676526 
0.00550325 
0.00370525 
-0.00774168 
-0.00251495 
0.00467502 
0.00572469 
0.00746291 
0.00425994 
0.00459131 
0.000787615 
0.00454628 
0.00551074 
0.00538371 
0.00420749 
0.002894 
-0.00110604 
-0.000720359 
0.00390252 
0.00106524 
0.00251561 
0.00127072 
-0.000459672 
-0.000528505 
0.00239766 
0.000293538 
-2.51974e-05 
5.09378e-05 
-9.33516e-05 
-0.000115661 
-0.000205902 
-0.000225924 
-0.000178592 
-8.0947e-05 
-0.000136307 
-0.000178522 
-0.00016515 
-9.71634e-05 
-0.000135999 
-0.000150134 
-0.000137363 
-0.000143664 
-0.00019241 
-8.39474e-05 
-1.54765e-05 
-0.000139375 
-0.00010944 
-5.19894e-05 
-6.48795e-05 
-0.000129671 
-0.000121198 
-9.76391e-05 
-8.94557e-05 
-0.00228895 
0.00259718 
-2.99101e-05 
0.00499201 
0.00585919 
0.00735834 
-0.00108662 
-1.74935e-05 
0.00516472 
0.00346884 
0.00614098 
-0.00028289 
-0.000134693 
0.000862624 
-0.000250382 
-0.000305619 
-4.70545e-05 
-8.07293e-05 
-0.000234909 
-0.000220273 
-0.00338107 
-0.000199785 
-7.38726e-05 
0.00194306 
-0.000245258 
-0.000173334 
-0.000671112 
-0.000100097 
-3.28382e-05 
-0.00148358 
-0.000223238 
0.00619694 
-0.000269797 
-1.21217e-05 
-0.000203891 
0.00458506 
0.00243883 
-8.42466e-05 
-6.17886e-05 
-1.27192e-05 
-3.13321e-05 
-0.00014541 
0.00759557 
-8.2344e-05 
0.000977632 
-0.000120023 
-0.000118318 
-0.000773316 
-0.00451265 
-0.00480579 
-0.0159488 
0.0171971 
0.00226155 
-7.91248e-05 
0.00410426 
-0.000265933 
-9.73419e-05 
2.66296e-05 
-9.88787e-05 
-0.000102281 
-0.00205492 
-0.000231548 
0.00222012 
0.005098 
-0.000838077 
-5.5054e-05 
-0.000143501 
-0.000130451 
-0.00106132 
-0.000118284 
-0.00160152 
-0.00583861 
-0.00796706 
-0.00145261 
-0.000390166 
0.00287682 
0.0141135 
-0.00254518 
0.00343125 
0.00381738 
2.66737e-05 
0.00421672 
0.000759292 
0.00155476 
0.00393046 
0.0156556 
0.00811295 
0.00497211 
0.00234713 
0.00324585 
0.00283196 
0.00175201 
4.30783e-05 
3.10043e-06 
-3.18064e-05 
-3.52767e-05 
-4.75091e-05 
3.98129e-05 
-2.73817e-05 
-0.000177316 
-0.000192995 
-0.000194044 
-0.000283486 
-0.00036789 
-0.000107456 
-0.000116234 
-0.000200733 
-0.000238274 
-0.000216956 
-0.000151937 
-0.000214571 
-0.000238441 
-0.000276824 
-0.000250038 
-0.000195955 
-0.0001401 
0.00151996 
-0.000154647 
0.000763837 
0.00588218 
-0.00141721 
0.00079096 
-0.00373232 
-0.00870638 
-2.42417e-05 
-0.00413946 
-0.00680323 
0.00689395 
0.0023745 
-0.00107871 
-0.00371037 
0.0078005 
0.00177984 
-0.00158484 
-0.0131375 
-0.0127765 
-0.00276836 
-0.000552972 
-0.00643677 
-0.00128788 
0.00415126 
0.00222334 
-0.0118342 
-0.0113861 
-0.00201928 
-0.000948659 
-0.00442735 
-0.00703395 
-0.000220322 
0.000409338 
-3.6095e-05 
-0.000177497 
-0.000214462 
1.79532e-05 
9.35815e-05 
8.37979e-05 
0.000164016 
0.000259866 
-8.0633e-06 
0.000145829 
0.000214531 
0.000203462 
-0.000186869 
-3.0694e-05 
0.000131251 
0.000106756 
3.73623e-05 
-0.000118734 
-4.36695e-05 
0.000128688 
0.00018421 
0.000150179 
0.000174938 
0.000197375 
0.000136075 
6.99294e-05 
7.56275e-05 
3.0011e-05 
6.58684e-05 
7.58355e-05 
-1.71806e-05 
-8.2476e-05 
0.00723702 
0.0132433 
0.00755737 
0.00574474 
0.00933337 
0.00809253 
0.0028079 
0.00459756 
0.00630824 
0.00150362 
0.00147154 
3.77762e-05 
0.00167631 
0.00802049 
-0.000521062 
-0.0030152 
0.0110349 
0.008444 
0.00766352 
0.00830737 
0.013413 
-0.000320615 
-0.000306052 
-0.000162859 
-0.000180392 
-0.000300026 
-0.000351988 
-0.000293961 
-0.000321431 
-0.000193915 
-0.000296422 
-0.000354189 
-0.000373473 
-9.21894e-05 
3.45425e-05 
0.000189358 
6.38888e-05 
-0.000252654 
-9.3788e-05 
8.75899e-06 
-5.51985e-05 
-0.000379042 
-0.00029316 
-9.38086e-05 
-6.90115e-05 
0.00540256 
0.00843982 
-0.000109906 
-0.000645015 
-0.000281485 
-0.000467131 
-0.000338325 
0.00972422 
-0.000232708 
0.000120241 
0.00538422 
-2.33093e-05 
-7.21846e-05 
-9.34333e-05 
-0.00442639 
0.00443359 
-0.000102527 
-0.000106861 
0.00343701 
7.92641e-05 
-0.000327221 
0.00472974 
-6.91148e-05 
-0.000239066 
0.000187111 
-6.26395e-05 
0.00090409 
0.00084916 
-0.0119603 
7.54278e-05 
0.000149355 
-9.77667e-05 
-0.000240354 
-5.33432e-05 
0.00163296 
-0.000182952 
-7.51573e-05 
-0.000228457 
0.00772452 
-0.000238221 
0.00319724 
-0.000164399 
0.0025027 
-0.000190605 
-0.000253335 
-7.01934e-05 
0.00129308 
0.00944798 
0.00700833 
0.00500335 
0.0078402 
0.00976461 
0.00608156 
0.00727209 
0.00468416 
0.0144044 
0.00599584 
0.0037917 
0.0057752 
0.00641145 
0.00968788 
0.00679632 
0.00785369 
0.0055241 
0.00600323 
0.00194957 
0.00345103 
0.00444053 
0.00250616 
0.00224804 
-0.000803378 
-0.00337519 
-0.00417375 
0.00285042 
0.000796533 
-0.000447272 
-0.000366907 
-0.000382117 
-0.000341123 
-0.000374487 
-0.000336002 
-0.000299206 
-0.000198366 
-0.000378839 
-0.000283419 
-0.000209959 
-0.000184806 
-0.000346055 
-0.000281038 
-0.000311244 
-0.000327192 
-0.000281151 
-0.000160054 
-0.000238866 
-0.000240836 
-9.57495e-05 
-8.05515e-05 
-0.000137987 
-0.000125816 
-0.000153747 
-0.000216985 
0.00353179 
0.0107535 
0.00798063 
0.00918947 
0.00474331 
0.00500982 
0.0059314 
0.00608247 
0.00328574 
0.00318724 
-0.00210126 
0.0134166 
0.00446364 
0.000925101 
0.00983145 
0.00520902 
0.00333602 
0.00457703 
0.00325721 
0.00298712 
0.000833786 
-0.00699662 
-0.00144025 
-0.00110535 
0.00120495 
-0.0108147 
-0.0193607 
-0.0131783 
-0.00876739 
-0.000388108 
-0.000254201 
-0.000285682 
-0.000295481 
-0.000270982 
-0.000151552 
-0.000145481 
-0.000144573 
-5.51061e-05 
0.000169402 
-0.000131143 
-6.45745e-05 
0.000120173 
0.000126444 
-0.000185916 
-0.000103532 
-0.00016405 
-0.000159182 
0.00018436 
-3.22348e-06 
-8.63689e-05 
0.00014511 
0.000216785 
3.41379e-05 
-0.000123281 
0.00598877 
0.00458881 
5.89469e-06 
0.000319765 
0.00352578 
0.00487528 
0.00378346 
0.00910856 
-0.000466282 
0.00312158 
0.0113043 
0.00853281 
0.0069148 
0.00928449 
0.000482403 
0.00227417 
0.00443888 
0.00239525 
0.00660104 
0.00109173 
-0.00151297 
-0.00482705 
0.000434989 
-0.00589937 
-0.0183542 
-0.00793142 
-0.000539268 
-0.00146481 
0.00894067 
-8.33168e-06 
0.00215591 
-0.000270515 
-0.000219814 
-0.000165368 
-0.000214621 
-0.000180373 
-0.000167934 
-0.000134496 
-0.000272968 
-0.000234685 
-0.000179471 
-0.000126508 
-0.000273011 
-0.000310121 
-0.000196709 
-9.87858e-05 
-0.000294208 
-0.000208035 
-0.000150387 
-0.000229169 
-0.000288168 
-0.000306105 
5.11511e-05 
-4.9871e-05 
-0.000142536 
-0.000123693 
7.49777e-05 
0.000182727 
5.74409e-05 
-6.26474e-05 
1.54586e-05 
-2.51371e-05 
-0.00134545 
-0.000199716 
-0.000223415 
0.00490045 
0.00101533 
-0.000235353 
0.000949118 
-0.000241712 
-0.0002615 
0.00712699 
-0.000217461 
-0.00019335 
0.00359026 
0.00144096 
-9.87776e-05 
0.00325667 
8.41568e-06 
-0.000160598 
-0.000131663 
-4.76932e-05 
0.00279285 
-4.5898e-05 
0.00446227 
-0.000141112 
0.00595714 
-0.000183429 
0.00267379 
0.000732321 
-0.000150191 
0.0033054 
0.00116274 
0.0080435 
-0.000182163 
0.00399327 
0.00324604 
-0.000144694 
-0.000213158 
0.00328587 
-9.39564e-05 
-0.000161747 
-0.000190789 
0.00419973 
0.000759748 
0.00609593 
0.00341231 
-0.000227863 
-0.00024705 
-9.74445e-05 
0.00559657 
0.00182628 
-0.0001554 
0.00527516 
0.00376677 
-0.000121532 
0.00356537 
-8.30717e-05 
9.77874e-05 
-0.000219513 
0.00513516 
-3.54753e-05 
0.00871766 
0.00570279 
0.00369601 
0.00971493 
0.00699602 
0.00714836 
0.00191946 
0.00689473 
0.0119582 
0.00347916 
0.00552199 
0.00154565 
-0.00043916 
0.0046107 
0.00711399 
0.00851202 
0.00569774 
0.00475779 
0.00871343 
0.00977243 
0.00637697 
0.00754903 
0.00700951 
0.00606023 
0.00385163 
0.00655957 
0.00933559 
0.00393577 
-0.000302098 
-0.000200407 
-7.77259e-05 
-0.000181402 
-0.000294645 
-0.000316488 
-0.000294391 
-0.000363565 
-0.000258182 
-0.000330876 
-0.00039683 
-0.000409674 
-0.000306853 
-0.000369364 
-0.000213593 
-0.000134159 
-0.000177195 
-0.000265242 
-0.000367765 
-0.000327047 
-0.000325296 
-0.000296969 
-0.000364579 
-0.00036824 
-0.000290677 
-0.000182966 
-0.000311546 
-0.000209275 
0.00293148 
0.00432112 
0.00132327 
0.00428386 
0.00785714 
-0.000685277 
-0.00497549 
-0.0087081 
-0.00230544 
-0.00551266 
0.00114541 
0.00585789 
0.00348889 
0.00813565 
0.00989604 
0.01045 
0.0050873 
0.000790043 
0.00334104 
0.00102328 
0.00165031 
0.00788939 
0.00361317 
0.00357183 
0.0051839 
0.002889 
0.00419055 
0.00305817 
0.00521009 
-0.000218249 
-0.000356079 
-0.000145839 
-0.000238133 
-0.000318434 
-0.000291726 
2.51481e-06 
-5.05246e-05 
-0.000107796 
-8.00273e-05 
-2.85278e-06 
3.07431e-05 
-3.53817e-05 
-0.000100423 
-0.000344338 
-0.00016596 
-0.000301392 
-0.000340385 
-0.000263175 
-0.000244209 
-0.000163536 
-0.000209713 
-0.000228588 
-0.000206396 
-0.000115385 
-0.000157869 
-0.000186267 
-0.000215788 
0.00318757 
0.00260788 
0.00373544 
0.00418558 
0.00396209 
0.00305208 
0.00516672 
-0.0064876 
-0.0177987 
-0.00154192 
-0.0115122 
0.00575319 
0.00385929 
-0.000416831 
0.0042506 
0.00590144 
0.00647885 
0.00560132 
0.0136018 
0.00371993 
0.00709913 
0.0152636 
0.0236495 
0.00661525 
0.0122187 
-0.00023397 
-0.000175163 
-0.000172992 
-0.000241912 
-0.000199359 
-0.000226179 
-0.000240747 
-0.000285601 
5.94099e-06 
-2.32974e-05 
-0.000104449 
-0.000160819 
8.87876e-05 
-3.43142e-05 
-0.000204841 
-0.000107701 
-8.27329e-05 
-0.000203113 
-0.000344299 
-0.000245203 
-0.000116308 
-0.000127324 
-0.000393234 
-0.000379511 
-0.000120505 
-9.49469e-05 
-0.000358818 
-0.000133685 
0.00331519 
0.00250462 
0.00289787 
0.000117612 
-0.00909057 
6.09416e-05 
-0.000219025 
-0.000101807 
2.85742e-05 
-0.000178913 
0.0151029 
0.00252737 
-0.000307919 
-0.000205547 
-0.000234678 
-0.00723955 
0.00368554 
0.00388682 
-5.6039e-05 
0.000211559 
-6.37351e-05 
-9.81601e-05 
-0.000186949 
-0.00020455 
-0.000220769 
4.74097e-05 
0.00289086 
0.00472571 
0.00394304 
-8.65692e-05 
0.00437851 
0.000769405 
0.00914645 
0.000132319 
-0.000209109 
-0.000224532 
0.0100214 
0.00451811 
-0.000104632 
-0.000192702 
0.00321178 
ITEM: TIMESTEP
2400000
ITEM: NUMBER OF ATOMS
896
ITEM: BOX BOUNDS pp pp ff
-1.7153631884999999e+01 1.8003017117999999e+01
-1.7855467918999999e+01 1.7553981017000002e+01
-3.4618715923000003e+01 3.4618715923000003e+01
ITEM: ATOMS q 
0.00246308 
-0.000296016 
0.00666734 
-0.000381226 
-0.00036309 
-0.000370351 
-0.00027151 
-0.000255052 
0.00770694 
0.00273455 
-0.000268895 
-0.000435666 
-0.000179759 
-0.000374662 
0.00747783 
0.00305484 
0.00860998 
-0.000350302 
-6.15885e-06 
-0.000433423 
-0.000289668 
0.00263706 
0.0012954 
0.000701935 
0.00896435 
0.00296689 
-0.000763168 
-0.00171867 
-0.00425884 
-0.00615485 
0.00261794 
-0.000979188 
-0.000904779 
0.00349878 
0.00360272 
0.00696209 
0.00700555 
0.00537684 
-0.00449831 
0.00113504 
0.00570089 
0.00463658 
0.00392971 
0.00398878 
0.00332764 
0.0036783 
-0.000198347 
-0.000180519 
-0.000216653 
-0.00022481 
-0.000107465 
-8.33499e-05 
-0.000134111 
-0.000135466 
-0.000238663 
-0.000109396 
-0.000153911 
-0.000263899 
-0.000284618 
-0.000349203 
-0.000311456 
-0.000249227 
-0.000293318 
-0.000309803 
-0.000298153 
-0.000305243 
-0.000347132 
-0.00991884 
0.00338239 
0.00157083 
0.00552987 
-0.000547093 
0.00681471 
0.0020536 
-0.00144355 
0.00541151 
0.00754725 
0.00240024 
0.00400624 
0.00388728 
0.00981402 
0.00715213 
0.0052427 
0.00257283 
-0.00071076 
0.00456717 
0.00466987 
0.00551844 
0.00716675 
0.00482642 
0.00725263 
0.00666356 
0.00467411 
0.00706469 
0.00631521 
0.00448524 
-0.000443582 
0.00159485 
0.00122254 
0.00153339 
-0.000287486 
-0.000240338 
-0.000256122 
-0.000279857 
-0.000328857 
-0.000237836 
-0.000289663 
-0.000367628 
-0.000415913 
-0.00030816 
-0.000348727 
-0.000324165 
-0.000407683 
-0.000320238 
-0.000277908 
-0.000231002 
-0.000354719 
-0.000351063 
-0.000361645 
-0.00039848 
-0.000406337 
-0.000426694 
-0.00031603 
-0.000385217 
-0.000372909 
-0.000232029 
-0.000259783 
-0.000250139 
0.00336395 
0.00298125 
0.00236938 
-0.00360746 
0.00699948 
0.00564957 
0.000804348 
-0.00311672 
0.00659757 
0.00418835 
0.00192467 
0.000496118 
-0.00371345 
0.00581954 
0.00608486 
0.00310266 
-4.39415e-05 
0.00499204 
0.00709936 
0.00398267 
-0.000975903 
-0.000254262 
0.00252297 
0.00272307 
0.00150796 
0.00398898 
0.000854847 
-0.000272655 
-0.000334645 
-0.000341591 
-0.000205612 
-0.00025295 
-0.000276547 
-0.000188149 
-0.000261993 
-0.000183298 
-0.000160102 
-0.000174477 
-0.00026679 
-0.000216417 
-0.000162682 
-0.000191428 
-0.00026884 
-0.000342085 
-0.00031632 
-0.000251481 
-0.000224139 
-0.000284196 
-0.000276037 
-0.000265986 
-0.000214631 
-0.000224595 
-0.000249695 
-0.000234845 
0.00597237 
0.00527946 
-0.000192844 
0.000389219 
-0.000251191 
0.000394423 
0.00700831 
0.00828656 
0.0019847 
0.00374192 
0.00771037 
0.00438931 
0.000734439 
0.00443248 
-0.000352235 
-5.42642e-05 
0.00274139 
-0.000510138 
-0.000248339 
-0.000263508 
-0.000475936 
0.00169792 
0.00436995 
-0.000481911 
-0.000412135 
0.000731461 
8.86669e-05 
0.00289353 
0.0120523 
0.00330486 
-0.0160211 
0.00600459 
-0.000412225 
-0.00041291 
0.00305503 
-0.000529091 
-0.000482578 
0.00440236 
-0.000396678 
-0.000449656 
0.0137347 
-7.64348e-05 
0.00678003 
-0.000299685 
0.00182592 
-0.000419154 
-2.58833e-05 
0.0102874 
-0.000280603 
-0.000895357 
-0.000882788 
0.00644681 
-0.000416968 
0.0083989 
0.00464426 
-2.35935e-05 
-0.000329926 
-0.000407248 
0.00302164 
0.00421089 
0.0035761 
0.00233306 
0.00172444 
0.00391734 
0.00149186 
0.00339154 
0.00484975 
0.00506171 
0.0118406 
0.00953011 
0.00682166 
0.00272542 
0.00247953 
0.00522087 
0.00446961 
0.00468246 
0.00432923 
0.00385194 
0.0055107 
0.00742052 
0.00445719 
0.00659288 
-0.00026377 
-0.000326223 
-0.000387721 
-0.000351489 
-0.000264848 
-0.000275792 
-0.000302112 
-0.000301064 
-0.000255537 
-0.00027091 
-0.000281948 
-0.000241737 
-0.000394364 
-0.00046101 
-0.000418375 
-0.000388498 
-0.000330265 
-0.000371161 
-0.000384668 
-0.000371462 
-0.000240848 
-0.000321825 
-0.000349047 
-0.000378265 
-7.9136e-05 
-0.000459166 
0.00223969 
0.00542061 
0.00670844 
0.0108903 
0.00859565 
0.00681651 
0.00523404 
0.00331734 
0.00283729 
0.00505121 
0.00508422 
-0.00268091 
-0.00323403 
-0.00214687 
-0.00225149 
0.00257477 
-0.00276564 
-0.00274842 
0.00445875 
0.00110275 
0.00197592 
0.00465903 
0.00505307 
0.000660234 
-0.00157353 
0.00124594 
-0.00117653 
0.00665155 
0.00449097 
0.00728777 
0.00129882 
-0.000344339 
-0.000274571 
-0.000227422 
-0.000171178 
-0.000439561 
-0.000411348 
-0.000273297 
-0.000255466 
-0.000344915 
-0.000383965 
-0.000315462 
-0.000229486 
-0.000276102 
-0.000292479 
-0.000232801 
-0.000158677 
-0.000142658 
-0.000189368 
-0.000298197 
-0.000329542 
-0.000208796 
-0.00017473 
-0.000262721 
-0.000326771 
-0.000232256 
-0.000279293 
-0.000317567 
-0.000322477 
-0.000104987 
-0.000179411 
-0.000220142 
-7.68757e-05 
-0.000135552 
0.00662127 
0.00106741 
0.00179081 
0.00585444 
0.00520487 
0.00616541 
0.00317639 
0.00521822 
0.00624025 
0.00493466 
0.0094573 
0.00327375 
0.00341389 
0.00680827 
0.00586712 
0.00326346 
0.00324907 
0.00701042 
0.00698418 
0.00554317 
0.00531332 
-0.000333569 
-0.000304339 
-0.000294461 
-0.00032872 
-0.000387535 
-0.000360587 
-0.000355145 
-0.000401646 
-0.000417769 
-0.000403042 
-0.000416075 
-0.000417899 
-0.000317035 
-0.00031479 
-0.00028033 
-0.00021778 
-0.000351211 
-0.000291392 
-0.000192067 
-0.000189401 
-0.000363172 
-0.000321379 
-0.000201693 
-0.000209314 
0.00524124 
0.00551792 
0.00433792 
-0.000169407 
1.30843e-05 
-0.000266078 
-0.00325592 
-0.000357478 
-0.00192108 
0.00775157 
-0.000172215 
-0.000171504 
-0.00026481 
-5.32807e-05 
0.00161513 
0.00540484 
-0.0040509 
-0.000303897 
-0.00020693 
0.00208287 
-0.00402044 
4.15978e-05 
0.00584228 
1.17886e-05 
-0.000143661 
-0.000216247 
-3.17537e-05 
0.00572956 
0.00303852 
-3.32881e-05 
-2.19162e-05 
-6.42239e-05 
-0.000222789 
-0.00651765 
-2.36716e-05 
0.00334515 
-0.000119086 
-1.2058e-05 
-0.00366888 
-0.000297814 
-0.000362283 
-0.000320014 
0.00435582 
-0.000155258 
0.00349671 
0.00268349 
-0.000436871 
0.00941868 
0.00072637 
-0.000377693 
0.00593257 
-0.000307605 
0.00517255 
0.00341799 
-0.000168382 
-0.000402432 
-0.000364091 
-0.000319299 
0.00702916 
-0.000306622 
-0.000396157 
-0.000332796 
0.00846874 
-0.000194274 
0.00310678 
0.00178936 
0.00271954 
-0.00069514 
0.0147742 
0.00684822 
0.000879887 
0.00224702 
0.00772156 
0.00589374 
0.00608238 
0.00523023 
0.00473683 
0.00519499 
0.00110794 
0.000932253 
0.0025198 
0.00707984 
0.00411806 
0.00452838 
0.00758892 
0.00629644 
0.00623303 
0.00959337 
0.00767359 
0.00702029 
0.00546599 
0.00564473 
-0.000336727 
-0.000244846 
-0.000222136 
-0.00025507 
-0.000423869 
-0.000275948 
-0.000295697 
-0.000375592 
-0.000476273 
-0.000367296 
-0.000390861 
-0.000430144 
-0.000396058 
-0.000411125 
-0.000308736 
-0.000272501 
-0.000244075 
-0.000419567 
-0.000393257 
-0.000388291 
-0.000443197 
-0.00045577 
-0.000433959 
-0.000417637 
-0.000407439 
0.0100507 
0.00601875 
0.0129108 
0.00544781 
0.00597889 
0.00646216 
-0.0039571 
-0.00253031 
-0.00210717 
0.00104213 
-0.0265133 
-0.00752394 
-0.000524062 
0.00496203 
0.00575414 
0.00410239 
0.00569462 
0.00562061 
0.0057408 
0.00722045 
0.00243375 
0.00270967 
0.00730767 
0.00518872 
0.00618974 
0.00372656 
0.00379036 
0.00626361 
-0.00050062 
-0.000407757 
-0.000362261 
-0.000380271 
-0.000379608 
-0.000355865 
-0.000120493 
-0.000195433 
-0.000270095 
-0.000262656 
-6.19833e-05 
-8.9584e-05 
-0.000214917 
-0.000263601 
-0.00039769 
-0.000384882 
-0.000400999 
-0.000380934 
-0.000329062 
-0.000384749 
-0.000389212 
-0.000326976 
-0.000321984 
-0.000341986 
-0.000183826 
0.00617311 
0.00233802 
-0.015826 
-0.00564483 
0.00618103 
0.00586218 
0.00516164 
0.00699673 
0.00483108 
0.00590346 
0.00709209 
0.00845608 
0.00530655 
0.00860535 
-0.00451788 
-0.0082747 
0.0013449 
0.00618367 
0.00546486 
0.00271844 
0.00585057 
0.00628732 
0.00544616 
0.00289306 
0.00123112 
0.00438032 
0.00152707 
0.00605746 
0.00483948 
0.00666877 
0.00605974 
-0.00028472 
-0.000407992 
-0.000422631 
-0.000124967 
9.71916e-05 
0.000101847 
-4.23283e-05 
-0.000385084 
-0.000236512 
-0.000184739 
-0.000309653 
-0.000425901 
-0.000416378 
-0.000372272 
-0.000345812 
-0.000372583 
-0.000313445 
-0.000153673 
-0.000138904 
-0.000250829 
-0.000296547 
-0.000311167 
-0.000302636 
-0.000319266 
-0.000361631 
-0.000320596 
-0.00033697 
-0.000364502 
-0.000381332 
-0.000297298 
-0.000331507 
0.00734477 
7.29324e-05 
0.000998191 
0.00108872 
-0.000330355 
0.00949325 
-0.000412175 
-0.000311609 
-0.000179267 
0.00576885 
-0.000396418 
0.00475315 
-0.000254751 
-0.000270635 
0.00457401 
-0.000156624 
0.00421035 
0.0084193 
-0.000358938 
-0.000334737 
0.00453167 
0.00468522 
-0.000388134 
-0.000379221 
0.00356136 
0.0094066 
0.00592826 
0.00889248 
-0.00043908 
-0.00406317 
-0.000407073 
0.00468912 
-0.000412306 
-0.000180241 
-0.000428403 
-0.000369975 
0.00251198 
-0.0059467 
-0.000334613 
0.00484084 
0.000436834 
0.00259692 
0.00463994 
-0.000330973 
0.00138508 
-0.000376088 
-0.00167266 
0.00710521 
-0.000165459 
-0.000135529 
0.000459965 
0.00212435 
-0.000233497 
-8.09232e-05 
0.00271936 
-0.000175471 
0.00191357 
0.00407742 
0.00235777 
-0.0022366 
0.00436291 
-3.17421e-05 
0.00360787 
0.00641629 
0.00518187 
0.00732842 
0.00441844 
0.00845846 
-0.00208791 
-0.00126489 
-0.00412435 
-0.00439965 
0.00281225 
0.000166579 
2.56139e-06 
0.00139748 
0.0104335 
0.00734207 
0.00425136 
0.00476563 
0.00805884 
0.00576743 
-0.00991166 
0.00311833 
0.00720499 
-0.000240438 
-0.000225482 
-0.000151458 
-0.000104568 
-0.000334848 
-0.000237141 
-0.000185234 
-0.000283341 
-0.000416578 
-0.00038953 
-0.000392018 
-0.000461705 
-0.000441089 
-0.000469714 
-4.81162e-05 
-2.986e-05 
3.38864e-05 
0.000152695 
-0.000253015 
-0.000100507 
3.08514e-06 
-0.000156479 
-0.000414743 
-0.000333585 
-0.000337254 
-0.000404149 
-0.000400788 
-0.000373917 
0.00601334 
0.00703188 
0.00548954 
0.00443919 
0.00518978 
0.00494857 
0.0043592 
0.00619993 
0.0047529 
0.00480411 
0.00605885 
0.00235891 
0.00666662 
0.00701297 
0.0069081 
0.00929914 
0.0053478 
0.0102584 
0.0127416 
0.00710236 
0.00902101 
0.00655498 
0.00879544 
0.00690406 
0.000319535 
0.00305286 
0.00355446 
0.00224686 
-0.000399775 
-0.000458107 
-0.000383107 
-0.000410633 
-0.000436981 
-0.000460255 
-0.000378112 
-0.000387586 
-0.00043494 
-0.000448896 
-0.000374399 
-0.000372069 
-0.000393617 
-0.000431245 
-0.000425757 
-0.00033058 
-0.000481639 
-0.000430946 
-0.000369169 
-0.000351795 
-0.000480453 
-0.000511816 
-0.000418539 
-0.000333247 
-0.000421586 
-0.000421387 
-0.00035629 
-0.000352825 
-0.00988535 
-0.00479562 
-0.0149459 
-0.00276617 
-0.0273415 
-0.00848186 
0.0111072 
0.0101552 
0.0114885 
0.00401955 
0.0108871 
-0.0027936 
0.00124518 
-0.00114721 
0.00805366 
0.000815137 
0.0011142 
0.00834886 
0.0123032 
0.00690313 
0.00518079 
0.00523784 
0.00817846 
0.00434716 
0.000557606 
0.000275592 
0.000188948 
0.000108936 
3.83276e-05 
-3.46796e-05 
0.000281613 
9.21294e-05 
-0.000152275 
-0.000440909 
-0.000303188 
-0.00026786 
-0.0003936 
-0.000452095 
-0.000417618 
-0.000142442 
-0.000103443 
-0.000113295 
-0.000172172 
-0.00026102 
-0.000211086 
-8.16314e-05 
-0.000132089 
-0.000308544 
-0.000259935 
-8.9988e-05 
-0.000200012 
-0.00022848 
-0.000129719 
-0.00241828 
0.000723664 
-0.000231795 
-0.000200131 
0.00135595 
-0.000167848 
0.00124146 
-0.0001883 
0.0085628 
-0.00016027 
-0.000312573 
-0.000197331 
-0.000288667 
0.00371321 
-0.000228726 
-0.00922501 
-0.000303625 
0.00658851 
-0.000200452 
0.00199237 
-0.00020903 
0.0047658 
-0.000262276 
0.000641997 
0.000956245 
-0.000340251 
-0.000364579 
-0.000165491 
-0.000956061 
0.00247187 
-0.000135539 
0.000780414 
-0.000251964 
0.00190532 
0.00256664 
-0.000273421 
-0.000216426 
0.00401934 
-0.000241534 
-0.000365469 
0.00520819 
-9.41525e-05 
-0.00155678 
ITEM: TIMESTEP
2600000
ITEM: NUMBER OF ATOMS
896
ITEM: BOX BOUNDS pp pp ff
-1.7153631884999999e+01 1.8003017117999999e+01
-1.7855467918999999e+01 1.7553981017000002e+01
-3.4618715923000003e+01 3.4618715923000003e+01
ITEM: ATOMS q 
0.00102875 
-0.000281364 
0.000769917 
-0.000116562 
0.00454286 
-0.000459513 
-0.000139034 
-0.000255489 
0.00358917 
-0.000123929 
-0.00217685 
-5.17919e-05 
-6.31548e-05 
-0.000359981 
-0.000455196 
0.0012975 
0.00813109 
0.0059606 
-0.000450407 
0.00355778 
-0.000386033 
-0.000360338 
0.00547806 
-0.00155966 
-4.274e-05 
0.0123522 
0.0103107 
0.0082133 
-0.000511 
0.00847528 
0.0111103 
0.0051033 
0.00828223 
0.00355581 
0.00632841 
0.0134556 
0.0113741 
0.00199 
0.00367507 
0.00318603 
0.00274324 
0.00552887 
0.00784332 
0.00493809 
0.00182926 
0.00942066 
0.0067677 
0.00444888 
0.00623253 
-0.000436275 
-0.000268152 
-0.000189681 
-0.000237098 
-0.000535767 
-0.00036933 
-0.000339947 
-0.000392364 
-0.000493423 
-0.000474619 
-0.00046209 
-0.000483005 
-0.000216494 
-0.000159916 
-0.000144298 
-0.000322167 
-0.00025367 
-0.000224273 
-0.000430726 
-0.000336279 
-0.000299448 
0.00335345 
0.0035414 
0.00811279 
0.00845269 
0.00200798 
0.00226116 
0.00643187 
0.00511054 
0.0083002 
0.0016682 
-7.07543e-05 
0.000253828 
0.0099965 
0.00519174 
0.00306211 
0.00632366 
0.0104155 
0.0100602 
0.00847983 
0.0105503 
0.00637758 
0.00835409 
0.0108689 
0.00933351 
0.00893725 
0.00585499 
0.0077819 
0.00798749 
0.0075362 
0.0144178 
0.00961459 
0.00782349 
-0.000377989 
-0.000415538 
-0.000487021 
-0.000487993 
-0.000277861 
-0.000324969 
-0.000413363 
-0.000406128 
-0.000288712 
-0.000233988 
-0.000334152 
-0.000402237 
-0.000330942 
-0.000269591 
-0.000355647 
-0.000363369 
-0.000509118 
-0.000472726 
-0.000425809 
-0.000465259 
-0.000507964 
-0.000478544 
-0.000456035 
-0.00045728 
-0.00045863 
-0.000404948 
-0.000474152 
-0.000424465 
-0.000126338 
0.0022734 
0.000760035 
0.00449586 
0.00361292 
0.00260935 
0.00407431 
0.00462388 
0.0113344 
0.00507337 
0.0023897 
0.00870296 
0.00691719 
0.00425471 
0.00504355 
-0.00103659 
-0.00523112 
0.00832989 
0.00456336 
0.00268705 
0.00433192 
0.00681546 
0.00773833 
0.00634075 
0.00727372 
-0.00811662 
0.00456993 
0.00854363 
-0.000190264 
-0.000255319 
-0.000353253 
-0.000213197 
-0.000169775 
-0.000159424 
-0.000216515 
-0.000322877 
-0.000307668 
-0.000318097 
-0.000379593 
-0.000365515 
-0.000384211 
-0.000407729 
-0.000392428 
-0.000127562 
-6.03123e-05 
9.11968e-06 
7.27586e-05 
-0.000311035 
-0.000160001 
-3.52124e-05 
-0.000178421 
-0.000411944 
-0.000366421 
-0.000349299 
-0.000433845 
0.00932887 
0.000454044 
3.40008e-05 
-0.000381642 
-0.000279829 
0.00625585 
0.0152847 
-0.000232416 
0.00672905 
0.00696041 
-0.00264605 
0.0059514 
0.00759361 
-0.000227292 
0.00560258 
-0.000346048 
-0.000340814 
-0.000307947 
-0.00386586 
-0.000317959 
-0.000906627 
0.0068102 
0.00490345 
0.00975458 
-0.00167255 
0.00396243 
0.00895394 
0.00628286 
0.000357501 
-0.000477647 
-0.00314547 
-2.73329e-05 
0.00513495 
0.00433516 
-8.49729e-05 
-0.000264904 
-0.000129565 
-0.000126131 
-0.000415236 
-6.15447e-05 
-0.000150032 
-0.000442023 
0.0109619 
-0.000373672 
-0.000893377 
-0.000329355 
-8.3423e-05 
-0.000204979 
-0.00013301 
-5.17741e-05 
1.44153e-05 
-0.00246641 
-0.00506656 
-0.000169661 
0.000199214 
5.00712e-05 