ITEM: TIMESTEP
2000000
ITEM: NUMBER OF ATOMS
896
ITEM: BOX BOUNDS pp pp ff
-1.7153631884999999e+01 1.8003017117999999e+01
-1.7855467918999999e+01 1.7553981017000002e+01
-3.4618715923000003e+01 3.4618715923000003e+01
ITEM: ATOMS q 
0 
0 
0 
0 
0 
0 
0 
0 
0 
0 
0 
0 
0 
0 
0 
0 
0 
0 
0 
0 
0 
0 
0 
0 
0 
0 
0 
0 
0 
0 
0 
0 
0 
0 
0 
0 
0 
0 
0 
0 
0 
0 
0 
0 
0 
0 
0 
0 
0 
0 
0 
0 
0 
0 
0 
0 
0 
0 
0 
0 
0 
0 
0 
0 
0 
0 
0 
0 
0 
0 
0 
0 
0 
0 
0 
0 
0 
0 
0 
0 
0 
0 
0 
0 
0 
0 
0 
0 
0 
0 
0 
0 
0 
0 
0 
0 
0 
0 
0 
0 
0 
0 
0 
0 
0 
0 
0 
0 
0 
0 
0 
0 
0 
0 
0 
0 
0 
0 
0 
0 
0 
0 
0 
0 
0 
0 
0 
0 
0 
0 
0 
0 
0 
0 
0 
0 
0 
0 
0 
0 
0 
0 
0 
0 
0 
0 
0 
0 
0 
0 
0 
0 
0 
0 
0 
0 
0 
0 
0 
0 
0 
0 
0 
0 
0 
0 
0 
0 
0 
0 
0 
0 
0 
0 
0 
0 
0 
0 
0 
0 
0 
0 
0 
0 
0 
0 
0 
0 
0 
0 
0 
0 
0 
0 
0 
0 
0 
0 
0 
0 
0 
0 
0 
0 
0 
0 
0 
0 
0 
0 
0 
0 
0 
0 
0 
0 
0 
0 
0 
0 
0 
0 
0 
0 
0 
0 
0 
0 
0 
0 
0 
0 
0 
0 
0 
0 
0 
0 
0 
0 
0 
0 
0 
0 
0 
0 
0 
0 
0 
0 
0 
0 
0 
0 
0 
0 
0 
0 
0 
0 
0 
0 
0 
0 
0 
0 
0 
0 
0 
0 
0 
0 
0 
0 
0 
0 
0 
0 
0 
0 
0 
0 
0 
0 
0 
0 
0 
0 
0 
0 
0 
0 
0 
0 
0 
0 
0 
0 
0 
0 
0 
0 
0 
0 
0 
0 
0 
0 
0 
0 
0 
0 
0 
0 
0 
0 
0 
0 
0 
0 
0 
0 
0 
0 
0 
0 
0 
0 
0 
0 
0 
0 
0 
0 
0 
0 
0 
0 
0 
0 
0 
0 
0 
0 
0 
0 
0 
0 
0 
0 
0 
0 
0 
0 
0 
0 
0 
0 
0 
0 
0 
0 
0 
0 
0 
0 
0 
0 
0 
0 
0 
0 
0 
0 
0 
0 
0 
0 
0 
0 
0 
0 
0 
0 
0 
0 
0 
0 
0 
0 
0 
0 
0 
0 
0 
0 
0 
0 
0 
0 
0 
0 
0 
0 
0 
0 
0 
0 
0 
0 
0 
0 
0 
0 
0 
0 
0 
0 
0 
0 
0 
0 
0 
0 
0 
0 
0 
0 
0 
0 
0 
0 
0 
0 
0 
0 
0 
0 
0 
0 
0 
0 
0 
0 
0 
0 
0 
0 
0 
0 
0 
0 
0 
0 
0 
0 
0 
0 
0 
0 
0 
0 
0 
0 
0 
0 
0 
0 
0 
0 
0 
0 
0 
0 
0 
0 
0 
0 
0 
0 
0 
0 
0 
0 
0 
0 
0 
0 
0 
0 
0 
0 
0 
0 
0 
0 
0 
0 
0 
0 
0 
0 
0 
0 
0 
0 
0 
0 
0 
0 
0 
0 
0 
0 
0 
0 
0 
0 
0 
0 
0 
0 
0 
0 
0 
0 
0 
0 
0 
0 
0 
0 
0 
0 
0 
0 
0 
0 
0 
0 
0 
0 
0 
0 
0 
0 
0 
0 
0 
0 
0 
0 
0 
0 
0 
0 
0 
0 
0 
0 
0 
0 
0 
0 
0 
0 
0 
0 
0 
0 
0 
0 
0 
0 
0 
0 
0 
0 
0 
0 
0 
0 
0 
0 
0 
0 
0 
0 
0 
0 
0 
0 
0 
0 
0 
0 
0 
0 
0 
0 
0 
0 
0 
0 
0 
0 
0 
0 
0 
0 
0 
0 
0 
0 
0 
0 
0 
0 
0 
0 
0 
0 
0 
0 
0 
0 
0 
0 
0 
0 
0 
0 
0 
0 
0 
0 
0 
0 
0 
0 
0 
0 
0 
0 
0 
0 
0 
0 
0 
0 
0 
0 
0 
0 
0 
0 
0 
0 
0 
0 
0 
0 
0 
0 
0 
0 
0 
0 
0 
0 
0 
0 
0 
0 
0 
0 
0 
0 
0 
0 
0 
0 
0 
0 
0 
0 
0 
0 
0 
0 
0 
0 
0 
0 
0 
0 
0 
0 
0 
0 
0 
0 
0 
0 
0 
0 
0 
0 
0 
0 
0 
0 
0 
0 
0 
0 
0 
0 
0 
0 
0 
0 
0 
0 
0 
0 
0 
0 
0 
0 
0 
0 
0 
0 
0 
0 
0 
0 
0 
0 
0 
0 
0 
0 
0 
0 
0 
0 
0 
0 
0 
0 
0 
0 
0 
0 
0 
0 
0 
0 
0 
0 
0 
0 
0 
0 
0 
0 
0 
0 
0 
0 
0 
0 
0 
0 
0 
0 
0 
0 
0 
0 
0 
0 
0 
0 
0 
0 
0 
0 
0 
0 
0 
0 
0 
0 
0 
0 
0 
0 
0 
0 
0 
0 
0 
0 
0 
0 
0 
0 
0 
0 
0 
0 
0 
0 
0 
0 
0 
0 
0 
0 
0 
0 
0 
0 
0 
0 
0 
0 
0 
0 
0 
0 
0 
0 
0 
0 
0 
0 
0 
0 
0 
0 
0 
0 
0 
0 
0 
0 
0 
0 
0 
0 
0 
0 
0 
0 
0 
0 
0 
0 
0 
0 
0 
0 
0 
0 
0 
0 
0 
0 
0 
0 
0 
0 
0 
0 
0 
0 
0 
0 
0 
0 
0 
0 
0 
0 
0 
0 
0 
0 
0 
0 
0 
0 
ITEM: TIMESTEP
2200000
ITEM: NUMBER OF ATOMS
896
ITEM: BOX BOUNDS pp pp ff
-1.7153631884999999e+01 1.8003017117999999e+01
-1.7855467918999999e+01 1.7553981017000002e+01
-3.4618715923000003e+01 3.4618715923000003e+01
ITEM: ATOMS q 
-0.000328332 
0.0039119 
-0.000392168 
-0.000230047 
-0.000160696 
0.00327367 
-0.00127978 
0.00194687 
-0.00371481 
-0.00519942 
-5.37607e-05 
0.012519 
0.00364698 
-0.000118172 
-0.00356181 
-0.000273542 
-0.000317877 
-0.00330794 
0.00607733 
-0.00055948 
0.00608827 
-0.00186195 
-0.00265104 
-0.000247421 
0.00684678 
-0.000333501 
0.00116297 
-0.000898207 
-0.00371851 
0.00376817 
-0.00171374 
0.00207838 
0.000521821 
-0.000553003 
0.00833773 
0.00561205 
0.000504531 
0.00693214 
0.00731413 
-0.00589778 
-0.00241727 
-0.000661837 
-0.000944263 
0.00545537 
-0.00258253 
1.4141e-05 
0.00739586 
0.0043793 
0.00349504 
0.004723 
-0.00251742 
-0.000167021 
-0.000155036 
-0.000127124 
-8.08331e-05 
-0.000313911 
-0.000189396 
-0.000181241 
-0.000271171 
-0.000423997 
-0.000341647 
-0.000345885 
-0.000318969 
-0.000118192 
-0.000194693 
-0.000288556 
-0.000267169 
-0.000211642 
-0.000290342 
-0.000221457 
-0.000269402 
-0.000290342 
-0.000114834 
0.00230989 
0.00754072 
0.00543951 
0.00235216 
0.00417807 
0.00703939 
0.00604125 
0.00499811 
-0.0026122 
0.000110541 
-0.00161778 
0.0147436 
0.00609964 
-0.00214375 
0.00182956 
0.00688179 
0.00320648 
-0.00932851 
-0.00563592 
0.0040992 
0.00447602 
0.00173906 
0.0014718 
0.00325891 
0.00502316 
0.00219855 
-0.00101072 
0.000484733 
-0.00341637 
-0.0052795 
-0.000365187 
-0.000432297 
-0.000379645 
-0.000358013 
-0.000328418 
-0.000332516 
-0.000348735 
-0.000354122 
-0.000308644 
-0.000265492 
-0.000207446 
-0.000252215 
-0.000195661 
-0.0004252 
-0.000225949 
-0.000190604 
-0.000222869 
-0.000193272 
-0.000117457 
-0.000170956 
-0.000272125 
-0.000207664 
-0.000220324 
-0.000171451 
-0.000226502 
-0.000265166 
-0.000200755 
-0.000133812 
-0.000208602 
-7.75268e-05 
0.00328425 
0.00436455 
-0.00402969 
-5.7757e-05 
0.00855056 
0.00578414 
0.0039939 
0.00434029 
0.000579888 
0.00745856 
0.00563926 
0.00718126 
0.00240705 
0.00683224 
0.00667341 
0.0031643 
0.00473082 
0.00499759 
0.0030624 
0.00572155 
0.00720559 
0.0068526 
0.0128231 
0.0142362 
0.00242398 
0.00342415 
0.0100871 
-0.000258092 
-0.000375613 
-0.000271142 
-0.000260939 
-0.000285262 
-0.00036079 
-0.000311253 
-0.000382178 
-0.000318349 
-0.000317635 
-0.000398843 
-0.000386593 
-0.000411991 
-0.00042941 
-0.000400917 
-0.000340135 
-0.000427765 
-0.000369852 
-0.00028002 
-0.000425921 
-0.000366459 
-0.000340365 
-0.000383658 
-0.000421212 
-0.000501918 
-0.000479967 
-0.000510535 
-0.000181286 
-4.64003e-05 
0.00417063 
-0.000405373 
0.00787555 
-0.00030801 
0.00208348 
-0.000139099 
0.00382166 
-0.000225738 
-0.0011215 
0.000680463 
0.00115382 
-7.27028e-05 
-0.000244305 
-0.000138569 
-0.0002756 
-0.000124872 
-6.3651e-05 
-0.000154151 
-0.00642401 
-0.000184569 
0.00888684 
0.0082929 
-0.00115374 
-0.0051163 
-0.000365367 
-0.000300926 
-0.000231623 
0.00112698 
0.006475 
0.00410698 
-0.000326073 
-0.000936834 
-0.000109914 
0.00502226 
0.00216693 
-0.000242758 
-4.98876e-05 
-0.00018707 
-0.000309599 
-0.000415552 
-0.00028314 
-0.000327326 
-0.000186155 
-0.000234729 
0.00126512 
-0.00011204 
0.000802402 
-0.000276806 
0.0071918 
-0.000272583 
-0.000140718 
-9.69646e-06 
-0.000155828 
0.00180428 
0.000883155 
-0.000365724 
-0.000275873 
-0.000531608 
0.00131719 
0.0023348 
0.00461179 
-0.000330485 
0.00400881 
0.00661278 
0.00763536 
0.00761386 
0.00583862 
0.00658989 
0.0105499 
0.0136851 
0.00154571 
0.0041861 
0.002747 
-0.00319344 
-0.00102469 
0.00150061 
0.00274253 
0.00250043 
0.00337351 
0.00224069 
-0.000868408 
0.00450576 
-0.000283425 
-0.000317598 
-0.00037245 
-0.000351381 
-0.000371262 
-0.00032686 
-0.000332559 
-0.000314537 
-0.000466007 
-0.000425496 
-0.000347866 
-0.000316949 
-0.000325374 
-0.000410388 
-0.000314321 
-0.000225342 
-0.000235 
-0.000213611 
-0.000186271 
-0.000189167 
-0.000277978 
-0.000240034 
-0.000236076 
-0.000322877 
0.00823325 
0.00526701 
0.00683937 
0.00773525 
0.00867593 
0.00870329 
0.000748013 
0.00199677 
0.00456858 
0.00118456 
0.00239554 
0.00608163 
0.00636235 
0.00069113 
0.00135852 
0.00597724 
0.0109893 
0.00966414 
0.0089774 
0.00825893 
0.00700972 
0.00682413 
0.00603889 
0.00568517 
0.00463642 
0.00365322 
0.00103422 
0.00609314 
0.00701633 
0.0108917 
0.00402095 
0.00700131 
-0.000465231 
-0.00045472 
-0.000391321 
-0.000436112 
-0.000394699 
-0.000469508 
-0.000489783 
-0.000517254 
-0.000261689 
-0.00035306 
-0.000441858 
-0.00040257 
-0.000227158 
-0.000283517 
-0.000332716 
-0.000300301 
-0.000426989 
-0.000335679 
-0.000379872 
-0.000461962 
-0.000524364 
-0.000510155 
-0.000499666 
-0.00048097 
-0.000403126 
-0.000465088 
-0.000425356 
-0.000350397 
-0.000315079 
-0.000350522 
-0.000351592 
-0.000364635 
-0.000212956 
0.00767047 
-0.000297975 
0.00305625 
-0.00128877 
-0.000385573 
0.000371983 
0.0029893 
0.00342695 
0.00697179 
0.00314315 
0.00695155 
0.00652889 
-0.00312764 
0.00200883 
0.00140976 
0.000622898 
0.005853 
0.00743474 
0.0042802 
0.00723878 
0.0071407 
-0.000213939 
-0.000261734 
-0.000237735 
-0.000243639 
-0.000214094 
-0.000196428 
-0.000224858 
-0.000266977 
-0.000349868 
-0.000296099 
-0.00032786 
-0.000379159 
-0.000225696 
-0.000245205 
-0.000137533 
-0.000138349 
-0.000273471 
-0.000197761 
-0.000141924 
-0.000207633 
-0.000333817 
-0.000296547 
-0.000177501 
-0.000241103 
-0.000107242 
-0.000269944 
0.00210741 
-0.000174191 
-0.000361123 
0.0135537 
-0.00155532 
-0.000302619 
-0.000225524 
0.00548613 
-0.000427918 
0.00190565 
0.00398848 
0.00654939 
0.00262211 
-0.000245146 
0.0086888 
0.00641941 
-0.000262943 
-0.000378014 
0.0116024 
-0.00267711 
-0.000287821 
-0.000117248 
-0.000266173 
0.00594716 
-0.000407424 
-0.000167198 
-0.000224762 
-0.000233171 
0.00137029 
-0.000417901 
0.00548449 
-0.000322595 
0.00369146 
0.00541172 
-0.000221799 
-0.000382431 
0.00712454 
-0.00038796 
0.000762757 
-0.000302645 
0.000120217 
-0.000408294 
0.0080849 
-0.000496356 
0.00175734 
-0.000573303 
-0.000449541 
0.00575291 
0.00568023 
0.000708796 
-0.000588836 
0.0142105 
-0.0003139 
0.0100062 
0.00723393 
0.00736004 
0.00674799 
0.00716222 
0.0050419 
0.00492841 
0.00684178 
0.00624011 
0.00455288 
0.00664102 
0.0119372 
0.00977075 
0.000624715 
0.00442146 
0.00562709 
0.00428198 
0.00556104 
0.00353206 
0.00299737 
0.000677531 
-0.00258755 
0.000461757 
0.00529445 
0.00401207 
0.00508789 
0.0079222 
0.00414474 
0.00291048 
-0.000530103 
-0.000371257 
-0.000316936 
-0.000328941 
-0.000554701 
-0.000418673 
-0.000369145 
-0.000348507 
-0.000503472 
-0.000469631 
-0.000429214 
-0.000386905 
-0.000367137 
-0.00037633 
-0.000270105 
-0.000259561 
-0.000234143 
-0.000277034 
-0.000227666 
-0.000231624 
-0.000335375 
-0.000315634 
-0.000268306 
-0.000292985 
-0.000294164 
0.0107436 
0.00463253 
0.0104562 
0.00671141 
0.00427439 
0.00208788 
0.00644815 
0.00595592 
0.00311945 
0.00141655 
-0.00140337 
-0.00328249 
-0.00224028 
-0.000524462 
0.00083024 
-0.00360102 
0.00460584 
0.00190809 
-0.00206047 
0.00163817 
0.0057422 
0.0103518 
0.0106401 
0.00909823 
0.000942995 
0.0062103 
0.00954427 
0.00534661 
-0.000432838 
-0.000306105 
-0.000438618 
-0.000350424 
-0.000311853 
-0.000337884 
-0.00029972 
-0.000307373 
-0.000349226 
-0.000364939 
-0.000189803 
-0.000162296 
-0.000257249 
-0.00023141 
-0.000262457 
-0.000319771 
-0.000236122 
-0.000295058 
-0.000448034 
-0.000442675 
-0.000474877 
-0.00032096 
-0.000433548 
-0.00047613 
0.00177095 
0.00288776 
0.00229774 
0.00311202 
0.00286848 
0.00295909 
0.00490032 
0.000842204 
0.00171464 
0.00165388 
-0.000443584 
-0.00377505 
0.00639124 
0.00829191 
0.00352568 
-0.00866017 
-0.00451021 
0.00304563 
-0.00434465 
0.0029654 
0.00373189 
0.0064205 
-0.0180275 
-0.0144461 
0.00255313 
0.00119259 
-0.00838333 
0.00320179 
0.00264642 
0.00411699 
1.03207e-06 
-0.000249262 
-0.000231676 
-0.000296111 
-0.000254705 
-0.00022352 
-0.000124297 
-0.000135333 
-0.000195805 
-0.000218916 
-0.000168675 
-2.77128e-05 
-0.000211476 
-0.000126188 
2.06769e-05 
0.000119147 
-0.000272323 
-0.0001045 
-0.000119535 
-9.02822e-05 
-0.000161029 
-0.000218014 
-8.46951e-05 
-0.000211275 
-0.000246581 
-0.000258439 
2.57554e-05 
-9.02607e-05 
-0.00020967 
-0.00018925 
-0.00015267 
-0.000221676 
0.00770077 
0.00147139 
0.00859875 
-0.000229155 
0.00451825 
-0.000372288 
-0.000516943 
-0.000493059 
-0.000565874 
-0.000600326 
0.00989311 
-0.000446293 
-0.000567967 
-0.000464409 
0.0103094 
0.00818653 
-0.000571586 
0.00802208 
0.00759233 
0.00942157 
0.00268682 
0.00957621 
-0.000502893 
-0.000505993 
-0.000382821 
0.0067502 
0.00472324 
-0.000486772 
-0.000357172 
-0.000561274 
-0.000409187 
-0.000540369 
0.0151878 
0.00385331 
-0.000457271 
-0.000524517 
0.0072326 
0.00844351 
0.0071391 
-0.0004441 
0.00833046 
-0.000423881 
0.00581795 
-0.000422942 
-0.000345133 
0.00707729 
-0.000220961 
0.0113511 
0.0144659 
-0.000432202 
-0.000270252 
0.00256426 
-0.000211681 
-0.000173171 
0.00422203 
-4.98767e-05 
0.00943308 
-0.000226674 
0.00252484 
0.00772111 
-0.0015589 
0.00215559 
-7.44449e-05 
0.00163247 
-0.000162456 
-0.000105465 
0.00425374 
-0.000224848 
0.00381173 
-0.0015743 
-0.00169293 
-0.000114588 
0.00156916 
0.00353761 
0.0109609 
0.00087755 
0.00162212 
-0.000928724 
-0.00139042 
0.00314158 
0.000336115 
0.00184997 
0.00426127 
-0.00225971 
0.011708 
0.000999877 
-0.0042176 
0.0086329 
0.00532557 
0.00759361 
0.00738989 
0.00695722 
0.00646884 
0.00773448 
0.00652296 
0.0104901 
0.00198449 
-0.00022302 
-0.00021059 
-0.000232312 
-0.000220091 
-0.000301154 
-0.000295968 
-0.000292852 
-0.000406523 
-0.000232194 
-0.000298889 
-0.000386757 
-0.000393831 
-0.000282994 
-0.000364177 
-0.000225685 
-0.000274068 
-0.00032287 
-0.000363819 
-0.000382474 
-0.000263154 
-0.000355148 
-0.000415882 
-0.00044814 
-0.000445311 
-0.000390996 
-0.000326493 
-0.000458393 
-0.000390697 
0.00587672 
0.00296856 
0.00408511 
0.0041205 
0.00443831 
0.00191865 
-0.000165422 
0.00313528 
0.00202031 
0.0010873 
0.00669351 
0.00914506 
0.00574696 
0.0074733 
0.00860328 
0.00833756 
0.00352091 
0.0073979 
0.00937992 
0.00623753 
0.00479566 
0.00471067 
0.00492934 
0.00717395 
0.00665155 
0.00546327 
0.00522402 
0.00255654 
-0.000292502 
-0.000434235 
-0.000334097 
-0.000344986 
-0.00039969 
-0.000421418 
-0.000311118 
-0.000315473 
-0.00034911 
-0.000343873 
-0.00031417 
-0.000272711 
-0.000284099 
-0.0003523 
-0.00047012 
-0.000314165 
-0.00046757 
-0.000485681 
-0.000387696 
-0.00031706 
-0.000397222 
-0.000459474 
-0.000402872 
-0.000343808 
-0.000380321 
-0.000359384 
-0.000352587 
-0.000346324 
3.08901e-05 
0.00624862 
0.00445894 
0.00338602 
0.0103269 
0.00739681 
0.0053326 
-0.00120087 
0.0021794 
0.00493093 
0.00252523 
0.00227197 
0.00420411 
0.008161 
0.00913227 
0.00694359 
0.000550117 
0.00128242 
0.00148405 
0.000902813 
0.00518338 
0.00292421 
-0.00197118 
0.000775312 
0.00414898 
0.00423792 
-0.000419883 
-0.000388183 
-0.000407664 
-0.000370538 
-0.000385058 
-0.000416169 
-0.000342199 
-0.000277889 
-0.000273034 
-0.000299633 
-0.000274449 
-0.000248394 
-0.00013761 
-0.000120593 
-0.000333638 
-0.000363359 
-0.000198788 
-0.000281027 
-0.000217136 
-0.000216037 
-0.000144921 
-0.000305663 
-0.000213645 
-0.000171139 
-0.000162975 
-0.000263426 
-0.000211675 
-0.000115081 
-0.000144536 
-0.000256252 
0.0120737 
0.00663456 
0.00137926 
7.61644e-05 
-0.000203548 
-0.0120699 
-0.0174548 
0.00369282 
-8.33979e-05 
-0.000148125 
-0.000204756 
-0.000197687 
0.00280139 
-0.0002844 
-8.65521e-05 
-0.000120946 
-0.000187499 
-0.000178577 
-0.000210232 
-0.00628817 
-0.000195068 
-7.96919e-05 
-0.000231855 
-0.0023217 
-0.000184327 
0.000217316 
0.0121117 
-0.00454234 
-0.000125217 
-0.0127752 
-0.000217841 
ITEM: TIMESTEP
2400000
ITEM: NUMBER OF ATOMS
896
ITEM: BOX BOUNDS pp pp ff
-1.7153631884999999e+01 1.8003017117999999e+01
-1.7855467918999999e+01 1.7553981017000002e+01
-3.4618715923000003e+01 3.4618715923000003e+01
ITEM: ATOMS q 
-9.86212e-05 
-0.000324096 
-0.000271307 
0.00141682 
0.00104503 
0.00841075 
-4.33572e-05 
-0.000244732 
-0.00255452 
0.0041558 
-0.00017721 
-0.00025209 
0.00482596 
0.0103115 
-0.000323251 
-0.000358287 
0.00689522 
0.000527021 
-0.00370228 
7.8349e-05 
0.00219716 
0.00902437 
0.00167374 
0.00154898 
0.00304246 
0.0174119 
0.0100632 
0.00746461 
0.00980569 
0.000713526 
-0.00158727 
0.00301563 
0.00456447 
0.00213026 
0.00212411 
0.00570638 
0.0053041 
0.00612539 
-0.00073043 
-0.00296518 
0.00330924 
-0.000147297 
-6.97031e-05 
-7.24978e-05 
-0.000132487 
-0.000361068 
-0.000175554 
-0.000179092 
-0.000206732 
-0.00053645 
-0.000374065 
-0.000293056 
-0.000344035 
-0.000186862 
-0.000168237 
-0.000220834 
-0.000209712 
-0.000254581 
-0.000314105 
-0.000295563 
-0.000228351 
-0.000268869 
0.00648039 
0.0076493 
0.00559549 
0.00664683 
0.0120824 
0.00682538 
0.00695154 
0.0092126 
0.00446596 
0.00265902 
0.0058229 
0.00392182 
0.00542684 
0.00114781 
0.00170499 
0.00407432 
0.00934886 
0.00664573 
0.0055949 
0.00918157 
0.0078723 
0.00812103 
0.0064196 
0.00507488 
0.00605507 
0.00517904 
0.0058688 
0.00611806 
0.00695034 
0.00871054 
0.00746017 
0.00475315 
-0.000505385 
-0.000409919 
-0.000408322 
-0.000428596 
-0.000487139 
-0.00041615 
-0.000433766 
-0.000416643 
-0.000317338 
-0.000343058 
-0.000363941 
-0.000354419 
-0.000269827 
-0.00023877 
-0.000315648 
-0.000341081 
-0.000420361 
-0.000369319 
-0.000375254 
-0.000385674 
-0.000405871 
-0.000376775 
-0.000381053 
-0.000365114 
-0.000341546 
-0.000370894 
-0.000389879 
-0.00036943 
-4.28559e-06 
0.00897016 
0.0114867 
-0.0169079 
0.000904675 
0.0063521 
0.00918841 
0.0111108 
0.00570654 
0.00859307 
-0.00165191 
0.00150456 
0.0029588 
0.000239839 
-0.0013926 
0.00391056 
0.00447245 
0.00257072 
-0.00074097 
-0.00138328 
0.00266405 
0.00211207 
0.000786369 
0.00042715 
0.00123048 
0.00641439 
0.00771994 
0.00599641 
-0.000296244 
-0.000305045 
-0.000328587 
-0.000230388 
-0.000102672 
-0.000163028 
-0.000144398 
-0.000297848 
-0.000284416 
-0.000182469 
-0.000181012 
-0.00030423 
-0.000238504 
-0.000211127 
-0.000191484 
-0.000149323 
-0.000215818 
-0.000296398 
-0.000310165 
-0.000162542 
-0.000166696 
-0.000264585 
-0.000343585 
-0.000171183 
-0.000179979 
-0.000269635 
-0.000328628 
-0.000301397 
0.00736993 
0.00517029 
0.00518244 
-0.000346433 
0.0029316 
0.00496343 
0.00549694 
-0.000320669 
-0.000264017 
0.00298872 
-0.000254513 
-0.000412448 
-0.000177317 
0.0019302 
0.00188733 
-0.000312151 
0.00450571 
-0.000288297 
-0.00030292 
0.00451389 
0.00572372 
0.00960626 
-0.00029264 
-0.000304895 
0.00392331 
-0.000191432 
0.0101178 
0.00355775 
-0.000642695 
-0.000293241 
-0.000317273 
-0.00298541 
-0.000278249 
2.54337e-06 
0.00589373 
0.000701784 
-3.09636e-06 
-0.000240567 
-0.000362306 
-0.00020064 
0.00414489 
0.00179217 
-0.000291253 
-0.000221393 
-0.00347924 
-0.000262854 
-0.00609932 
-0.000337516 
-0.000640625 
0.00370924 
-9.01752e-05 
0.00374472 
-0.000174567 
-0.000580797 
0.00424233 
0.0109757 
-0.000412061 
0.00357491 
-0.000191116 
-0.000215081 
-0.000106618 
0.0052722 
-0.000482651 
-0.000168303 
-0.000285784 
0.00176476 
-0.000555941 
0.00551467 
0.00679726 
-0.000408489 
-0.000257977 
0.00577953 
0.00901495 
0.006741 
0.00676397 
0.00619005 
0.00779303 
0.00893486 
0.0112077 
0.00756383 
0.00651491 
0.0132208 
0.00974293 
0.00366596 
0.00517511 
0.00350912 
0.00469307 
0.00614995 
0.00542384 
0.00538122 
0.00569278 
0.00702525 
0.0053273 
0.0103133 
0.0092627 
-0.000358727 
-0.000394061 
-0.000411702 
-0.000378832 
-0.000419392 
-0.000396585 
-0.000382083 
-0.000377554 
-0.000413192 
-0.000450449 
-0.000412199 
-0.000413346 
-0.000375016 
-0.00042268 
-0.000354201 
-0.000355015 
-0.000371887 
-0.000360672 
-0.000397523 
-0.000513343 
-0.000420984 
-0.000416059 
-0.000510231 
-0.000569481 
0.00448171 
0.00594274 
0.00490974 
0.00656862 
0.00972092 
0.00933948 
0.0147002 
0.0093625 
0.00363389 
0.00414944 
0.00309019 
-0.000724787 
0.00303295 
0.00279931 
0.00822018 
0.00602057 
0.0074477 
0.0119368 
0.0126988 
0.00991416 
0.00986293 
0.00909797 
0.00202994 
0.00772422 
0.00897879 
0.00811967 
0.00419729 
0.00250115 
0.00427378 
0.00237133 
0.0132875 
0.010592 
0.00662751 
0.00351541 
-0.000437265 
-0.000438623 
-0.000463949 
-0.000508269 
-0.000390905 
-0.00050855 
-0.000536211 
-0.000517201 
-0.000177624 
-0.000321903 
-0.000390007 
-0.000294905 
-8.42295e-05 
-0.000162625 
-0.000219262 
-0.000207512 
-0.000526604 
-0.0004981 
-0.000554235 
-0.000608396 
-0.000525201 
-0.000567515 
-0.000585358 
-0.000572818 
-0.000356421 
-0.000477572 
-0.0005121 
-0.000428301 
-0.000208999 
-0.000285436 
-0.000309986 
-0.000215267 
0.00502873 
0.00453901 
0.0067557 
0.00860722 
0.00847181 
0.00975257 
0.016281 
0.0128462 
0.00864067 
0.0116193 
0.00862034 
-0.0014951 
-0.00290581 
0.00724091 
0.00648104 
0.00106651 
0.00848264 
0.00521386 
0.00488283 
0.00654501 
0.0141314 
-0.000380972 
-0.000346912 
-0.00034395 
-0.000376534 
-0.000542462 
-0.000464644 
-0.000437774 
-0.000436083 
-0.000588338 
-0.000579787 
-0.000490962 
-0.000480038 
-0.00025385 
-0.000210637 
-0.000169921 
-0.000114695 
-0.000325164 
-0.000200416 
-6.65365e-05 
-0.000141932 
-0.000432285 
-0.000303559 
-0.000115072 
-0.000225382 
-0.000211073 
-0.000542037 
0.00424045 
0.00801897 
-0.000417977 
-0.000347026 
-0.000450569 
-0.000235823 
0.00624933 
0.00995302 
-0.000543025 
-0.00016385 
0.00467519 
0.0112281 
-0.000348028 
0.0133758 
-0.00052439 
0.00902539 
-0.000412846 
0.00288031 
-0.000289299 
0.00480957 
0.0129026 
-0.000311537 
0.0104996 
0.00999044 
-0.000267653 
0.00818791 
-0.000287707 
0.00650161 
0.0114277 
-0.000341808 
0.0112543 
-0.000483671 
-9.83817e-05 
-0.000508796 
-0.000231182 
0.00930051 
-0.000288843 
0.00961051 
-0.000315976 
-0.00036743 
-0.000362378 
-0.000176939 
0.000147899 
0.00620415 
0.0109799 
0.000139948 
-0.000282018 
-0.00100453 
0.00395901 
0.0121482 
-0.000325593 
0.00697865 
0.00394042 
0.00229162 
0.00232161 
0.00660894 
0.0039202 
0.00268873 
0.00353377 
0.00845199 
0.00454524 
0.00401729 
0.00625575 
0.00657844 
0.00650579 
0.00331757 
0.00475825 
0.00587377 
0.00654807 
0.00595042 
0.00430878 
0.00512182 
0.00627158 
0.00875656 
0.00823614 
0.00760884 
0.00545391 
0.0101048 
0.00789151 
-0.000299924 
-0.000237261 
-0.000277091 
-0.000287822 
-0.00034384 
-0.000251964 
-0.000278111 
-0.000344696 
-0.000452941 
-0.000320412 
-0.000373507 
-0.000455604 
-0.00042845 
-0.000464728 
-0.000331109 
-0.000355593 
-0.000364639 
-0.000369954 
-0.000354954 
-0.000386127 
-0.000466986 
-0.000427366 
-0.000437212 
-0.000516851 
-0.000532803 
0.00822336 
0.016446 
0.00789872 
0.00904052 
0.0109099 
0.00828793 
0.00899597 
-0.00146703 
0.0111703 
0.00737044 
-0.000265111 
-0.0118562 
-0.00545023 
-0.00277896 
-0.00430194 
0.00932468 
0.0115561 
0.00705667 
0.00944134 
0.0127046 
0.0111003 
-0.00449182 
0.00240109 
0.00603791 
0.00465556 
-0.0030859 
-0.00522733 
-0.000376894 
0.0045214 
-0.00060233 
-0.000507989 
-0.000578857 
-0.000476522 
-0.000477922 
-0.000406996 
-0.000245601 
-0.00031457 
-0.000256761 
-8.29542e-05 
-4.18767e-05 
-1.90073e-06 
8.82322e-06 
1.00401e-05 
-0.000540467 
-0.000430827 
-0.000551065 
-0.000545257 
-0.000139931 
-0.000316968 
-0.000248769 
-7.60052e-05 
-0.000104599 
-0.000129613 
-0.000524246 
0.00629315 
0.00783866 
0.00456115 
0.000655829 
0.00761108 
0.00759761 
0.0051289 
0.00816403 
0.00612775 
0.00757246 
0.0106641 
0.00807797 
0.0104064 
0.0112668 
0.00147946 
0.00253184 
0.00139574 
0.00260069 
0.00671953 
0.00482567 
0.00660637 
0.00728805 
0.00722293 
0.00894865 
0.00682072 
0.00449917 
0.00796579 
0.00475244 
0.00200575 
0.00442241 
0.00252792 
-0.0003804 
-0.000420306 
-0.000484534 
-0.000338601 
-0.000285301 
-0.000214757 
-0.000231347 
-0.00042046 
-0.000354665 
-0.000323776 
-0.000393496 
-0.000507538 
-0.000474949 
-0.000458668 
-0.000457913 
-0.000525739 
-0.000477793 
-0.000215741 
-0.000116312 
-7.34639e-05 
-0.000148297 
-0.000360392 
-0.000285648 
-0.000246402 
-0.00026128 
-0.000387191 
-0.000364795 
-0.000289025 
-0.000222501 
-0.00032622 
-0.000230487 
-0.000269203 
-0.000257009 
-0.00114467 
-0.000172549 
-0.000213581 
-0.000242172 
-9.49883e-05 
-0.000230804 
0.00482779 
0.00230419 
-6.9744e-05 
0.000618959 
0.0108507 
0.00750882 
-0.00282044 
0.013141 
-0.000572382 
0.00410675 
-0.000154819 
-0.00138094 
-0.000188772 
-0.00044055 
-3.56743e-05 
-0.000230896 
0.00212861 
-6.79313e-05 
0.00045678 
-0.00725552 
-0.000143447 
-0.000177304 
-0.000292985 
-0.000203554 
0.00873298 
-0.00312454 
-0.016681 
9.5582e-05 
8.73359e-05 
-0.00626323 
0.00788865 
0.00735537 
-0.000321547 
0.000137053 
-0.000363462 
0.00819419 
0.00562385 
2.46966e-05 
-0.0203187 
0.00578234 
9.27268e-05 
-0.000120214 
0.00109936 
-0.000274422 
-0.000306498 
-0.000151602 
-0.000276514 
-0.000234598 
0.000563492 
0.00227925 
0.0042384 
0.00771753 
0.00343966 
-0.000192905 
-0.000247709 
-0.000231452 
-0.000187828 
0.00443895 
-0.00265853 
0.000960952 
0.00316718 
0.00304661 
0.00322951 
0.000556971 
0.00275098 
0.0003532 
0.00402344 
0.000268201 
0.00169402 
0.0024298 
0.00270461 
-0.000590878 
0.00219113 
0.00241228 
0.00208059 
0.00666249 
0.00526518 
0.00939672 
0.00454255 
0.000680906 
-0.00465576 
0.00700474 
0.000352626 
0.000634477 
0.00350163 
-0.00163349 
-0.000141811 
-0.000130371 
-0.000182302 
-0.000192869 
-0.00020324 
-0.000188723 
-0.000185465 
-0.000207416 
-0.000195244 
-0.000202168 
-0.000226238 
-0.00026795 
-0.000186953 
-0.000228261 
-0.000195243 
-0.00017643 
-0.00016055 
-0.000144666 
-0.000225134 
-0.000214846 
-0.000179364 
-0.000183202 
-0.000187827 
-0.000172265 
-0.00014589 
-0.000104377 
-0.000124005 
-8.8409e-05 
-0.000172328 
-0.000270089 
-0.000151174 
-0.000176447 
0.00291803 
-0.000302457 
0.00276766 
-0.000848514 
0.00217212 
0.00329385 
0.00404157 
0.00323126 
0.00404158 
0.00568789 
0.00423922 
0.00968341 
0.00339732 
-0.000564853 
0.00231017 
-0.000844913 
-0.001843 
-0.00144522 
0.00797436 
0.00944469 
0.00825521 
0.00686664 
0.0113485 
0.00851461 
0.00808141 
0.0101945 
0.00157126 
-0.0063614 
0.00319315 
0.00615706 
-0.000156833 
-0.000195848 
-0.000198916 
-0.000182605 
-0.000184529 
-0.000239643 
-0.000291287 
-0.000262147 
-0.000307138 
-0.000381905 
-0.000371052 
-0.000335699 
-0.000388975 
-0.000447717 
-0.000149385 
-8.53187e-05 
-0.000199207 
-8.90788e-05 
-4.93634e-05 
-4.3072e-05 
-0.000375131 
-0.00028435 
-0.000175552 
-0.000236007 
-0.000419321 
-0.000373745 
-0.000327654 
-0.000353629 
-0.000756198 
0.00111734 
0.00179666 
0.00317762 
0.00129709 
0.00292711 
0.000346347 
0.00282731 
0.00276958 
0.00373291 
0.00363428 
0.000874231 
0.00125752 
0.00166735 
0.00706381 
0.00256556 
0.00151677 
0.00197927 
0.00152383 
0.00577994 
0.00286092 
-0.0047215 
0.00571691 
0.00728792 
0.00899015 
-0.000146352 
-0.000157402 
-0.000170105 
-0.000157113 
-0.000169882 
-0.000166415 
-0.000163828 
-0.00018105 
-0.000158818 
-0.000178379 
-0.000196783 
-0.000251108 
-0.000185067 
-0.000246396 
-0.000160987 
-0.000161925 
-8.09732e-05 
-0.000147067 
-0.0001383 
-0.000121455 
-6.19194e-05 
-0.000117302 
-0.00021737 
-9.27e-05 
-2.39922e-05 
-0.000169261 
-0.000243414 
-0.00011339 
-0.000243251 
-0.000308786 
-0.000126678 
-0.0014431 
0.00364873 
-0.000532165 
-0.00312925 
0.00647285 
-0.000351196 
-0.00260489 
-6.77062e-05 
-0.000311344 
-0.00138543 
0.00579593 
-0.000200073 
-9.9501e-05 
-0.000218667 
0.00908361 
0.00421979 
0.00529766 
0.0125175 
-0.000667942 
-0.000299472 
0.00378537 
-0.00182389 
-0.000256218 
-0.000193523 
-0.000218733 
0.00406118 
ITEM: TIMESTEP
2600000
ITEM: NUMBER OF ATOMS
896
ITEM: BOX BOUNDS pp pp ff
-1.7153631884999999e+01 1.8003017117999999e+01
-1.7855467918999999e+01 1.7553981017000002e+01
-3.4618715923000003e+01 3.4618715923000003e+01
ITEM: ATOMS q 
0.00336891 
-0.000399348 
0.00379025 
0.00729442 
-0.000446248 
-0.000581259 
-0.000519753 
-0.000776063 
0.00197784 
-0.000674575 
-0.000291477 
0.0158739 
-0.000580643 
0.00658632 
-0.000426114 
0.00386486 
0.00258205 
0.00134461 
0.00521597 
0.00506394 
0.00166164 
0.00600134 
0.00308036 
0.00497923 
0.00663697 
0.00909941 
0.00647114 
0.00623976 
0.00709666 
0.00281997 
-0.000145607 
-0.00111275 
0.00304844 
0.00817359 
0.00726917 
0.00896045 
0.0129003 
0.00572885 
0.00932339 
0.0138299 
0.00616134 
-0.00039104 
-0.000335619 
-0.000328333 
-0.000341591 
-0.00054618 
-0.000382093 
-0.000421605 
-0.000525273 
-0.000629434 
-0.000487219 
-0.000532635 
-0.000555483 
-0.000350549 
-0.000331641 
-0.000317086 
-0.000574693 
-0.000492887 
-0.000463921 
-0.000563223 
-0.000600495 
-0.000518932 
0.00954759 
0.00555223 
0.00737448 
0.00850885 
0.00836985 
0.0062066 
0.00819588 
0.00974422 
0.00324941 
0.000549851 
0.00194465 
0.00965121 
-0.000568362 
0.000625469 
0.00431376 
0.00199683 
0.00926461 
0.00814364 
0.00892136 
0.0071148 
0.0105395 
0.0108327 
0.0111454 
0.00913783 
0.009736 
0.00484436 
0.0018629 
0.00524137 
0.00929659 
0.0103061 
0.00972506 
0.0133066 
-0.000625438 
-0.000525636 
-0.00055359 
-0.000597872 
-0.000528718 
-0.000521777 
-0.000583463 
-0.000587181 
-0.000419049 
-0.000437872 
-0.000529981 
-0.000560632 
-0.000159025 
-0.00033615 
-0.000473309 
-0.000509906 
-0.000590789 
-0.00055241 
-0.000457879 
-0.000587369 
-0.000599726 
-0.000532448 
-0.000573798 
-0.000548665 
-0.000599304 
-0.000660077 
-0.000656684 
-0.000715448 
0.00368352 
-0.00303371 
-0.00724403 
0.00194431 
0.00887037 
0.00708154 
0.00289688 
0.00281174 
-0.00160413 
0.00488467 
0.00449983 
0.0067846 
0.00104499 
-0.0160907 
-0.0339562 
-0.0107349 
0.00322813 
0.00326475 
0.000472768 
0.00300369 
0.00767899 
0.00330282 
0.00173834 
-0.00177063 
-0.00054856 
0.00160587 
-0.0010452 
-0.00031441 
-0.000499945 
-0.000399485 
-0.000248108 
-0.000165927 
-1.64239e-05 
-4.73976e-05 
-0.000397923 
-0.000306285 
-0.000229365 
-0.000289253 
-0.000385503 
-0.000399509 
-0.000378819 
-0.000407042 
0.000116306 
0.000244489 
-5.29269e-05 
-8.99386e-05 
-0.000240898 
-7.42671e-05 
-8.95352e-05 
-0.000196235 
-0.00032328 
-0.000248297 
-0.000188366 
-0.000126564 
0.0100227 
0.00340131 
0.00476648 
-0.001516 
0.0100064 
-0.000319422 
-0.000687681 
0.00462112 
0.00147783 
0.0124675 
-0.000200288 
-0.000296267 
0.00934509 
0.0115606 
-0.000382532 
-0.00250187 
-0.00077959 
-0.000458623 
-0.000312062 
-0.000296435 
-0.000400223 
0.0112447 
0.00609544 
-0.00557784 
0.0060525 
-0.00355989 
0.00491915 
0.0176365 
0.010276 
-0.000241896 
-0.000521634 
-0.000110999 
-0.000595728 
-0.000579067 
-0.000540937 
0.00909529 
0.00553312 
-0.000697467 
0.00810441 
0.0130263 
-0.000480366 
-0.000279703 
-0.000784763 
0.0130783 
-0.000163044 
0.00494067 
-0.000610023 
0.0114034 
-0.000727443 
-0.000399248 
0.00897039 
-0.000543322 
-0.000430158 
0.0131031 
-0.000247628 
0.00650481 
0.00340022 
-0.000397147 
0.0103464 
-0.000391868 
0.00155821 
-0.000235638 
0.00732987 
0.0133507 
0.00640035 
-0.000472435 
0.00453533 
-0.000176479 
0.00843469 