ITEM: TIMESTEP
2000000
ITEM: NUMBER OF ATOMS
896
ITEM: BOX BOUNDS pp pp ff
-1.7153631884999999e+01 1.8003017117999999e+01
-1.7855467918999999e+01 1.7553981017000002e+01
-3.4618715923000003e+01 3.4618715923000003e+01
ITEM: ATOMS q 
0 
0 
0 
0 
0 
0 
0 
0 
0 
0 
0 
0 
0 
0 
0 
0 
0 
0 
0 
0 
0 
0 
0 
0 
0 
0 
0 
0 
0 
0 
0 
0 
0 
0 
0 
0 
0 
0 
0 
0 
0 
0 
0 
0 
0 
0 
0 
0 
0 
0 
0 
0 
0 
0 
0 
0 
0 
0 
0 
0 
0 
0 
0 
0 
0 
0 
0 
0 
0 
0 
0 
0 
0 
0 
0 
0 
0 
0 
0 
0 
0 
0 
0 
0 
0 
0 
0 
0 
0 
0 
0 
0 
0 
0 
0 
0 
0 
0 
0 
0 
0 
0 
0 
0 
0 
0 
0 
0 
0 
0 
0 
0 
0 
0 
0 
0 
0 
0 
0 
0 
0 
0 
0 
0 
0 
0 
0 
0 
0 
0 
0 
0 
0 
0 
0 
0 
0 
0 
0 
0 
0 
0 
0 
0 
0 
0 
0 
0 
0 
0 
0 
0 
0 
0 
0 
0 
0 
0 
0 
0 
0 
0 
0 
0 
0 
0 
0 
0 
0 
0 
0 
0 
0 
0 
0 
0 
0 
0 
0 
0 
0 
0 
0 
0 
0 
0 
0 
0 
0 
0 
0 
0 
0 
0 
0 
0 
0 
0 
0 
0 
0 
0 
0 
0 
0 
0 
0 
0 
0 
0 
0 
0 
0 
0 
0 
0 
0 
0 
0 
0 
0 
0 
0 
0 
0 
0 
0 
0 
0 
0 
0 
0 
0 
0 
0 
0 
0 
0 
0 
0 
0 
0 
0 
0 
0 
0 
0 
0 
0 
0 
0 
0 
0 
0 
0 
0 
0 
0 
0 
0 
0 
0 
0 
0 
0 
0 
0 
0 
0 
0 
0 
0 
0 
0 
0 
0 
0 
0 
0 
0 
0 
0 
0 
0 
0 
0 
0 
0 
0 
0 
0 
0 
0 
0 
0 
0 
0 
0 
0 
0 
0 
0 
0 
0 
0 
0 
0 
0 
0 
0 
0 
0 
0 
0 
0 
0 
0 
0 
0 
0 
0 
0 
0 
0 
0 
0 
0 
0 
0 
0 
0 
0 
0 
0 
0 
0 
0 
0 
0 
0 
0 
0 
0 
0 
0 
0 
0 
0 
0 
0 
0 
0 
0 
0 
0 
0 
0 
0 
0 
0 
0 
0 
0 
0 
0 
0 
0 
0 
0 
0 
0 
0 
0 
0 
0 
0 
0 
0 
0 
0 
0 
0 
0 
0 
0 
0 
0 
0 
0 
0 
0 
0 
0 
0 
0 
0 
0 
0 
0 
0 
0 
0 
0 
0 
0 
0 
0 
0 
0 
0 
0 
0 
0 
0 
0 
0 
0 
0 
0 
0 
0 
0 
0 
0 
0 
0 
0 
0 
0 
0 
0 
0 
0 
0 
0 
0 
0 
0 
0 
0 
0 
0 
0 
0 
0 
0 
0 
0 
0 
0 
0 
0 
0 
0 
0 
0 
0 
0 
0 
0 
0 
0 
0 
0 
0 
0 
0 
0 
0 
0 
0 
0 
0 
0 
0 
0 
0 
0 
0 
0 
0 
0 
0 
0 
0 
0 
0 
0 
0 
0 
0 
0 
0 
0 
0 
0 
0 
0 
0 
0 
0 
0 
0 
0 
0 
0 
0 
0 
0 
0 
0 
0 
0 
0 
0 
0 
0 
0 
0 
0 
0 
0 
0 
0 
0 
0 
0 
0 
0 
0 
0 
0 
0 
0 
0 
0 
0 
0 
0 
0 
0 
0 
0 
0 
0 
0 
0 
0 
0 
0 
0 
0 
0 
0 
0 
0 
0 
0 
0 
0 
0 
0 
0 
0 
0 
0 
0 
0 
0 
0 
0 
0 
0 
0 
0 
0 
0 
0 
0 
0 
0 
0 
0 
0 
0 
0 
0 
0 
0 
0 
0 
0 
0 
0 
0 
0 
0 
0 
0 
0 
0 
0 
0 
0 
0 
0 
0 
0 
0 
0 
0 
0 
0 
0 
0 
0 
0 
0 
0 
0 
0 
0 
0 
0 
0 
0 
0 
0 
0 
0 
0 
0 
0 
0 
0 
0 
0 
0 
0 
0 
0 
0 
0 
0 
0 
0 
0 
0 
0 
0 
0 
0 
0 
0 
0 
0 
0 
0 
0 
0 
0 
0 
0 
0 
0 
0 
0 
0 
0 
0 
0 
0 
0 
0 
0 
0 
0 
0 
0 
0 
0 
0 
0 
0 
0 
0 
0 
0 
0 
0 
0 
0 
0 
0 
0 
0 
0 
0 
0 
0 
0 
0 
0 
0 
0 
0 
0 
0 
0 
0 
0 
0 
0 
0 
0 
0 
0 
0 
0 
0 
0 
0 
0 
0 
0 
0 
0 
0 
0 
0 
0 
0 
0 
0 
0 
0 
0 
0 
0 
0 
0 
0 
0 
0 
0 
0 
0 
0 
0 
0 
0 
0 
0 
0 
0 
0 
0 
0 
0 
0 
0 
0 
0 
0 
0 
0 
0 
0 
0 
0 
0 
0 
0 
0 
0 
0 
0 
0 
0 
0 
0 
0 
0 
0 
0 
0 
0 
0 
0 
0 
0 
0 
0 
0 
0 
0 
0 
0 
0 
0 
0 
0 
0 
0 
0 
0 
0 
0 
0 
0 
0 
0 
0 
0 
0 
0 
0 
0 
0 
0 
0 
0 
0 
0 
0 
0 
0 
0 
0 
0 
0 
0 
0 
0 
0 
0 
0 
0 
0 
0 
0 
0 
0 
0 
0 
0 
0 
0 
0 
0 
0 
0 
0 
0 
0 
0 
0 
0 
0 
0 
0 
0 
0 
0 
0 
0 
0 
0 
0 
0 
0 
0 
0 
0 
0 
0 
0 
0 
0 
0 
0 
0 
0 
0 
0 
0 
0 
0 
0 
0 
0 
0 
0 
0 
0 
0 
ITEM: TIMESTEP
2200000
ITEM: NUMBER OF ATOMS
896
ITEM: BOX BOUNDS pp pp ff
-1.7153631884999999e+01 1.8003017117999999e+01
-1.7855467918999999e+01 1.7553981017000002e+01
-3.4618715923000003e+01 3.4618715923000003e+01
ITEM: ATOMS q 
-0.000242722 
-0.000234581 
-9.21944e-05 
-0.000120675 
-0.00022214 
-0.000149993 
-0.00014078 
-0.000206883 
-0.000166259 
-0.000177791 
-0.000206983 
-0.000216503 
-7.24734e-05 
-0.000121549 
-0.000162131 
-0.000138836 
-0.000177631 
-0.000209747 
-0.000258653 
-0.000221085 
-0.00024745 
-0.000303904 
-0.000266647 
-0.000298775 
-0.000327482 
-0.000319129 
-0.000203726 
-0.000238297 
-0.00376065 
-0.00383353 
-0.000523968 
0.00201351 
-0.00255208 
-0.000739237 
0.00242584 
0.00362384 
0.00152125 
0.00169928 
0.00567011 
0.00658262 
0.00262256 
0.00214879 
0.00283981 
0.0011039 
-0.00099482 
0.00204003 
0.00303858 
0.00231113 
0.000745977 
0.00671069 
0.0091001 
0.00121557 
0.00432849 
-4.53137e-05 
8.93683e-06 
1.99892e-05 
0.000103596 
0.000207139 
0.000318214 
-0.000138188 
0.00010576 
0.000370252 
0.000142391 
-0.000231599 
-0.000150701 
-8.9442e-05 
-0.000256752 
-4.31008e-05 
-0.000236638 
0.000150281 
-1.20799e-05 
-0.000173341 
-0.000231996 
-3.97324e-05 
-8.62392e-06 
-0.000223732 
-0.000265756 
-0.00029792 
-0.000248827 
-0.000265488 
-0.000265393 
0.00096687 
-0.00125499 
-0.0187484 
-0.0110879 
-0.0108233 
-0.00753369 
-0.0158075 
-0.0282411 
-0.0140523 
0.00219378 
0.00116496 
0.00155148 
0.00427496 
0.00635677 
0.000967534 
0.00198298 
0.00137 
0.00324278 
0.00393839 
0.00545477 
0.00506833 
0.00226891 
0.0032009 
0.00373728 
-0.000211051 
-0.000152482 
-7.97635e-05 
-0.000100094 
-0.000278934 
-0.00022752 
-0.000189857 
-0.000163665 
-0.000318998 
-0.000277937 
-0.000193626 
-0.000192656 
-0.000282987 
-0.000242978 
9.57385e-06 
8.69571e-05 
9.9349e-05 
3.92809e-05 
-0.000137485 
-4.26058e-05 
4.20596e-06 
-1.31027e-05 
-0.00012373 
-0.000114184 
-5.58335e-05 
6.06843e-06 
-7.0294e-05 
5.25016e-06 
0.00327074 
0.00198022 
0.00493981 
0.00334108 
0.000228668 
-0.00376372 
-0.00726285 
0.000137089 
0.00384201 
0.00395424 
0.000908974 
0.00137842 
-4.46199e-05 
-0.000370409 
-0.000534044 
0.0038594 
0.00462156 
-0.0102131 
-0.00725396 
0.00367269 
0.0040196 
0.000170053 
-0.00548627 
-0.00259053 
-0.00071241 
-0.00072143 
-0.00221269 
-0.00190251 
-0.000284327 
-0.000180358 
-0.000268933 
-0.000258557 
-0.0002031 
-0.000171709 
-0.000260571 
-0.000249694 
-0.00020411 
-0.000174779 
-0.000227556 
-0.000220686 
-0.000183754 
-0.000167368 
-8.92633e-05 
4.48492e-05 
-0.000117003 
-6.37672e-05 
3.25767e-06 
3.2087e-05 
-0.000117127 
-8.10158e-05 
1.66209e-06 
-1.54171e-05 
-0.00014492 
-0.000109602 
-9.5735e-05 
-0.000107597 
0.00430279 
0.00360679 
0.00308862 
0.000259156 
0.00484656 
-0.00204869 
0.00226378 
0.00253144 
-0.00323488 
0.000483303 
0.00152869 
0.000581395 
0.00329755 
0.000518212 
0.00020266 
0.00165622 
-0.000820254 
0.000869883 
-0.00430739 
-0.000994017 
-0.00206712 
-0.000773136 
-0.00672627 
-0.00127922 
-0.00346514 
0.000850732 
0.00231313 
0.00536602 
-4.12656e-06 
3.04982e-07 
-8.41143e-05 
-1.01452e-05 
0.000142851 
0.000106461 
0.000140536 
0.000374197 
0.000152115 
0.000289297 
0.000536633 
0.000516794 
0.000285373 
0.000418811 
-1.33159e-05 
-0.000124746 
-0.000130883 
-1.6284e-05 
0.000342628 
0.000104386 
8.91437e-05 
0.000178301 
0.000392607 
0.000330578 
0.000178588 
9.01568e-05 
0.000195544 
2.38692e-05 
4.57713e-06 
0.00022032 
8.54008e-05 
-0.00173494 
-0.00227502 
-0.00196787 
0.00243639 
0.00407419 
0.00032812 
0.00215273 
-0.0120104 
-0.00563655 
-0.00578631 
-0.0120258 
-0.00317209 
-0.0283417 
-0.0286954 
-0.00263716 
-0.0138777 
-0.0130842 
0.000195701 
0.0038369 
-0.00136973 
-2.95867e-05 
-0.0033085 
-0.00452568 
-0.00561457 
-0.0118055 
-0.000432005 
-0.00533786 
-0.0103915 
-0.00337716 
0.00196791 
-0.000882637 
0.000187812 
0.000388329 
0.000132375 
0.000282692 
0.00040324 
0.000210588 
1.0582e-05 
0.000105945 
9.58217e-05 
-3.26993e-05 
-9.99023e-05 
-3.16765e-05 
-1.94515e-05 
-9.07333e-06 
0.000285177 
-2.93718e-05 
4.95716e-05 
0.000108622 
-4.6568e-05 
-0.000198392 
-0.000210292 
-0.000210054 
-0.000308079 
-0.000413271 
-3.79109e-05 
-0.000220684 
-0.00034742 
-0.000269234 
-4.57844e-05 
-0.000180015 
-0.000344251 
-0.000287128 
-0.00186921 
-0.0058484 
-0.00575529 
0.00192892 
-0.0170742 
-0.0126013 
-0.00900604 
-0.0195807 
-0.0168791 
0.000362809 
-0.0083045 
-0.00631383 
0.00538315 
0.00510364 
-0.000205363 
-0.000179976 
-7.97944e-05 
-0.0042558 
0.00193542 
-0.00138286 
0.000163368 
-0.00296474 
-0.00364777 
0.00340244 
0.0088861 
0.00556272 
0.00788275 
0.00774419 
-0.00316787 
0.00808595 
0.0132277 
0.00559719 
-4.72452e-05 
4.67739e-06 
8.33387e-05 
0.000136228 
0.000157742 
0.000233249 
0.000181467 
0.000185035 
9.80753e-05 
-1.15625e-06 
-1.08802e-06 
5.67523e-05 
-3.35567e-05 
-7.37183e-05 
-0.000118668 
0.000238691 
0.00011784 
8.15553e-06 
-7.57444e-05 
7.98884e-05 
0.000139093 
1.45139e-05 
-8.3359e-05 
1.46634e-06 
-2.3817e-05 
9.13565e-05 
-0.00598745 
-0.0023986 
-0.00269168 
-0.00787858 
-0.00487196 
-0.00913984 
-0.0157177 
-0.00149267 
-0.006824 
-0.0108559 
-0.00225162 
-0.00015932 
-0.000385858 
0.00127627 
0.000486466 
-0.00311029 
-0.00172157 
-0.00557284 
-0.00200336 
-0.000593613 
0.000174325 
-0.00144442 
-0.00157048 
-0.000247629 
-0.00309904 
-0.00114343 
-3.68115e-05 
1.52817e-05 
-6.49804e-05 
3.25099e-06 
7.35778e-05 
-0.000197481 
-1.29789e-05 
8.1958e-05 
-0.000259475 
-1.86078e-05 
7.82431e-05 
3.21402e-05 
-5.03958e-05 
0.000172268 
0.000100699 
5.80335e-05 
6.95313e-05 
0.000175789 
0.000166028 
0.000127154 
3.49451e-05 
0.000156975 
0.000131334 
3.89348e-05 
-6.46045e-05 
-0.000384905 
-0.00123676 
-0.0013493 
-0.00318213 
-0.00588417 
-0.0110448 
0.00132952 
-0.00178731 
-0.00688083 
-0.00767141 
0.00222565 
-0.0022814 
-0.0118485 
-0.0105124 
-0.00211486 
0.00208826 
-0.00641876 
-0.00353942 
-0.00188688 
-0.00579119 
-0.00388281 
-0.00472144 
-0.00513231 
-0.00993377 
-0.00331003 
-0.000553298 
-0.00126537 
-0.00273496 
-0.000185924 
-0.000188673 
-0.000290329 
-0.000282042 
-0.000180259 
-0.000136365 
-0.00014389 
-3.28967e-05 
-8.62542e-05 
-9.46525e-06 
7.28016e-05 
7.0736e-06 
-0.000135791 
2.41976e-05 
-5.97685e-06 
-0.000139126 
-0.00031585 
-0.000341067 
-0.000304977 
-0.000284816 
-6.32226e-05 
-0.000198398 
-0.000210167 
-7.41089e-05 
-5.54779e-05 
-1.01017e-06 
3.34516e-05 
-1.97618e-05 
-0.000190071 
-0.000112505 
-8.57524e-05 
-0.00011135 
0.00822224 
0.00539307 
0.00725203 
0.00714225 
-0.00654755 
0.000417499 
-0.00043118 
-0.00151352 
-0.0100721 
-0.010227 
-0.00106401 
0.00214094 
-0.00129473 
-0.0021272 
0.00229523 
0.00430375 
0.00771144 
0.00433943 
0.00274298 
-0.00184216 
0.00249995 
0.0038477 
-0.00376983 
-0.0122426 
-0.00440694 
0.00288915 
-0.000842514 
-0.000852823 
-0.000151003 
-9.51671e-05 
-0.000123984 
-8.68186e-05 
-9.71184e-05 
-4.85472e-05 
2.80987e-05 
0.00014647 
-0.000244643 
-8.58777e-05 
0.000165747 
8.79885e-05 
-0.000110929 
-0.000174409 
-0.000122863 
-5.64955e-05 
0.000109038 
-2.12598e-05 
-2.99846e-05 
-2.13457e-05 
2.82746e-05 
6.3509e-05 
-5.07641e-05 
-0.000116035 
0.00103991 
0.00102699 
0.00562227 
0.00371616 
-0.0171093 
-0.00470157 
-0.00458283 
-0.00832894 
-0.0124685 
-0.0165085 
-0.0135613 
-0.00119994 
-0.000896277 
0.00169056 
-0.000759995 
-0.000731101 
-0.00180089 
-0.00290649 
0.000671691 
0.00104411 
0.000794647 
-0.000250222 
-0.000227658 
-0.000200613 
-0.000174795 
-0.000131232 
-0.000208481 
-0.000169132 
-7.96534e-05 
-5.32804e-05 
-7.57781e-05 
-6.57475e-05 
-8.12804e-06 
-6.4472e-05 
-6.33483e-05 
-2.24608e-05 
0.000100537 
-0.000131834 
-0.000121485 
-9.23731e-05 
-0.000166022 
-7.56509e-05 
-0.000133211 
-0.0001958 
-0.000183457 
4.88276e-05 
-3.6565e-05 
-8.15927e-05 
9.64065e-05 
0.000286113 
0.000226821 
0.000307414 
0.000483262 
0.0025724 
0.00350015 
-0.00138652 
-2.34499e-05 
0.00461937 
0.00146704 
0.00205107 
0.00114511 
0.000719058 
0.00226949 
-0.00212272 
-0.0043387 
0.00149941 
-0.00204065 
-0.00521541 
-0.0026961 
-0.00141337 
0.000541372 
0.000300869 
-0.0112851 
-0.0012614 
-0.00373892 
-0.00480932 
0.00446618 
0.00213042 
0.00728416 
-0.00308647 
0.00259402 
0.00191495 
-0.0190457 
-0.00653372 
-0.00963964 
-2.70654e-05 
-3.72279e-05 
6.35807e-05 
0.000109725 
-5.08626e-08 
-2.903e-06 
3.21517e-05 
0.000134941 
-6.68237e-05 
2.32067e-05 
0.000131689 
9.06333e-05 
0.000283197 
0.000402456 
0.000548147 
0.000537637 
0.000222954 
0.000317364 
0.00045758 
0.000419335 
0.000193277 
0.000260821 
0.000309396 
0.000222564 
-0.00373102 
-0.00285942 
-0.000564016 
-1.06102e-05 
-0.00243751 
-0.00924509 
-0.00724925 
-0.00339227 
0.000857627 
-0.00152129 
-0.00557817 
-0.00426393 
-0.00897585 
-0.0124737 
-0.0075151 
-0.0150262 
-0.0211932 
-0.0143236 
-0.00317002 
-0.0104805 
-0.0187361 
-0.0115311 
-0.0111117 
-0.0102944 
-0.000161242 
-9.08255e-05 
-1.01313e-05 
1.5062e-05 
-0.000147108 
-0.000139301 
-4.04059e-05 
8.94189e-05 
0.000192605 
7.03968e-05 
0.00020783 
0.000381124 
0.000436908 
0.000362389 
0.000436873 
0.000331832 
7.27752e-05 
-1.38717e-06 
-0.000103597 
-0.000115285 
0.000107669 
3.83565e-05 
-4.10192e-05 
-6.05874e-05 
0.000316265 
0.000141726 
2.0919e-05 
-3.93137e-05 
0.000202123 
0.000201727 
-1.87578e-05 
-0.000155117 
-0.000170106 
-6.08727e-05 
-5.97046e-05 
-0.000159918 
0.00298535 
0.00606874 
-0.00509711 
-0.010544 
0.00139294 
-0.00630005 
-0.00620843 
-0.00837501 
0.0011385 
0.00216341 
-0.0048629 
-0.00242351 
-0.0118875 
-0.0100327 
-0.00833966 
-0.0131679 
-0.00922306 
-0.0158556 
-0.0201434 
-0.00836724 
-0.00392713 
-0.00090031 
0.00253067 
0.00438742 
-0.00118427 
-0.00142252 
0.00289928 
-0.00169382 
-0.0035914 
-0.00133939 
-0.00395944 
0.00417089 
-0.00144275 
-0.00158907 
0.00322594 
0.00159588 
0.000491068 
0.00041037 
0.000237721 
7.17876e-05 
0.0004116 
0.000387954 
0.000144236 
6.0158e-05 
0.000132503 
0.000204927 
0.00011598 
-4.14811e-05 
-9.90054e-05 
-7.08339e-05 
-0.000218055 
-0.000323527 
-0.000111477 
-0.000198937 
-0.000297911 
-0.000225433 
-0.000135911 
-0.000135814 
-0.00014918 
-0.000142166 
-0.000308072 
-0.000202251 
-3.13514e-05 
-0.0171268 
-0.0139266 
-0.00390219 
-0.0033967 
-0.00419189 
-0.00405121 
0.00118756 
-0.0115489 
-0.00118207 
0.00160359 
0.00127617 
-0.00421524 
-0.00998804 
-0.000667295 
0.000307399 
0.0056875 
0.00470226 
0.0067078 
0.00562524 
0.00184918 
0.00781344 
0.0051377 
0.00399205 
0.0034335 
-0.00278898 
-9.20645e-05 
-0.00348639 
-0.000165396 
-3.44533e-05 
3.20666e-06 
-9.35685e-05 
-3.58435e-05 
0.000165337 
8.48314e-06 
0.000185872 
0.000296964 
-3.66902e-05 
0.000132396 
9.25933e-05 
3.2045e-05 
5.06411e-05 
-3.1429e-05 
-0.0001316 
0.00017819 
2.50785e-06 
-7.28733e-05 
-0.000150634 
0.000388839 
0.000241919 
2.25155e-05 
-0.000113718 
9.93597e-05 
0.000199985 
1.47996e-05 
-0.000155689 
0.000299385 
-0.00510867 
-0.00633795 
-0.00306242 
0.00180777 
0.00170672 
-0.00375473 
-0.00504354 
-0.0039698 
-0.00688567 
-0.0221338 
-0.0243034 
-0.00296139 
-0.0080076 
-0.00917695 
-0.00169385 
0.00146383 
0.000368116 
-7.42826e-05 
-0.00363599 
3.83651e-05 
0.00202516 
-0.00062914 
0.00302363 
-0.00664149 
-0.00290275 
0.000306239 
0.00596812 
-0.00227507 
-0.00142552 
0.00404646 
0.00551154 
-0.000196265 
-8.75396e-05 
-0.000130444 
-0.000249908 
-0.00018608 
-6.1249e-05 
-3.28969e-05 
3.36592e-05 
2.64265e-05 
-4.70638e-05 
-4.60195e-06 
-4.49667e-05 
-8.46399e-05 
-2.00157e-05 
-4.16456e-05 
1.2545e-05 
0.000103097 
2.43308e-05 
4.93152e-05 
0.000101154 
3.55344e-05 
0.00425209 
-0.000836834 
-0.00323644 
-0.00234735 
0.003462 
0.00400873 
0.00196524 
0.000351433 
-0.0125436 
-0.00856886 
-0.00688146 
-0.00580746 
-0.00349151 
-0.00172144 
0.0016693 
0.000633185 
-0.00059213 
-0.00216336 
-0.00207305 
-0.0169553 
-0.00457358 
-0.00353449 
-0.013857 
-0.0190841 
ITEM: TIMESTEP
2400000
ITEM: NUMBER OF ATOMS
896
ITEM: BOX BOUNDS pp pp ff
-1.7153631884999999e+01 1.8003017117999999e+01
-1.7855467918999999e+01 1.7553981017000002e+01
-3.4618715923000003e+01 3.4618715923000003e+01
ITEM: ATOMS q 
-0.000124807 
-0.00012445 
-0.00017635 
-0.000101766 
-0.000213898 
-0.000184746 
-0.000126079 
-0.000175913 
-0.000140773 
-0.00030017 
-0.000271097 
-0.000251745 
-0.000185318 
-0.00021358 
-8.47999e-05 
-0.000131961 
-0.000160209 
-0.000146371 
-0.000167051 
-0.000107469 
-0.000127171 
-0.000170747 
-0.000257136 
-0.000231637 
-0.000211712 
-0.000206498 
-0.000218832 
-0.000195733 
-0.0043876 
0.00606069 
0.00110903 
-0.00442753 
-0.00208529 
-0.00121863 
-0.00348296 
0.00130119 
-0.00103755 
0.00309554 
0.00615164 
0.00422384 
0.000766374 
0.00220407 
-0.00186407 
0.00295992 
0.00186702 
-0.000681954 
-0.00237097 
0.00195944 
0.00315605 
0.00378784 
0.00208055 
0.00121254 
0.000771385 
-8.76651e-05 
-0.00017288 
-0.000136985 
-0.000123088 
-0.000163568 
-0.000179423 
-0.000217724 
-0.000151797 
-0.000208142 
-0.000145476 
-0.000212062 
-0.000180507 
-0.000129539 
-1.73181e-06 
-0.000184021 
-0.000138597 
-0.000127109 
-0.000142205 
-0.000122179 
-8.77106e-06 
-5.91588e-05 
-6.96725e-05 
2.16266e-05 
5.52008e-05 
6.00628e-05 
9.21387e-06 
2.61877e-05 
-4.18325e-05 
-0.00137294 
0.00121308 
0.0061041 
0.000490523 
-0.000517736 
-0.00184356 
0.00649663 
0.00566188 
0.000613186 
-0.00100142 
-0.00436881 
0.00290228 
-0.00256593 
-0.00921328 
0.000340896 
0.000346143 
0.00280949 
0.00172866 
-0.00464768 
-0.00351786 
-0.00531592 
-0.00547389 
-0.00315446 
-0.000342728 
-0.000157325 
-0.000131925 
6.28437e-06 
5.00485e-05 
-0.000173905 
-0.000145592 
-8.54916e-05 
-0.000115337 
-0.000152211 
-0.000142949 
-0.000124027 
-0.000152274 
-0.00010602 
-0.00011666 
0.000130908 
3.36334e-05 
9.95154e-05 
0.000153814 
-7.65763e-05 
6.87679e-05 
0.000118623 
0.000145775 
-0.000114964 
-4.31021e-05 
0.000112105 
0.000182173 
-5.50963e-05 
9.97585e-05 
0.00182207 
0.00243282 
0.000334128 
0.00133709 
-0.00491018 
-0.0194377 
-0.0125719 
0.000196174 
0.00065333 
0.001218 
0.00342466 
-0.00287651 
-0.00261535 
0.00196286 
0.00347464 
0.000454067 
0.00483536 
-0.0129603 
-0.0151429 
-0.00149308 
0.00115065 
-0.00142098 
-0.00549574 
-0.0038934 
-0.00620219 
-0.0125816 
-0.00911631 
-0.0119643 
-9.12282e-05 
-9.16998e-05 
0.000105868 
4.8322e-05 
6.45192e-05 
0.000136876 
0.000125478 
0.000212359 
0.000268522 
9.56947e-05 
-8.32807e-05 
5.12983e-05 
1.49979e-06 
-0.00017203 
-9.95135e-05 
4.99239e-05 
6.74151e-06 
-5.15606e-05 
-4.3628e-05 
1.84358e-06 
-2.78763e-06 
3.80109e-05 
4.42673e-05 
9.82292e-06 
-0.000258032 
-0.00013762 
-9.85538e-05 
-0.000180082 
-0.000746761 
-0.00519769 
-0.00646519 
9.68198e-05 
-0.00176658 
0.00247269 
-0.0134046 
-0.00352613 
-6.4413e-05 
-0.000418393 
-0.0109573 
-0.0199535 
-0.00422982 
-0.000125051 
-0.00220173 
-0.000909494 
0.00213299 
0.00980847 
-0.00222158 
0.000746468 
7.53121e-05 
0.00182397 
-0.0060829 
-0.0070221 
-0.0082681 
0.0061602 
-0.00290369 
-0.000842283 
9.16031e-05 
4.34633e-05 
4.73868e-05 
7.72183e-05 
0.000205992 
0.000120941 
9.84557e-05 
5.78359e-05 
0.00020055 
0.000163322 
3.64e-05 
-4.17671e-05 
8.04408e-05 
-4.17569e-05 
0.000212 
0.000294484 
0.000416953 
0.000280487 
4.06098e-05 
0.000213335 
0.000232555 
2.5579e-05 
-7.91456e-05 
-2.91505e-05 
-5.42752e-05 
-0.000185748 
-0.00014821 
-0.000224872 
0.000125552 
-2.37007e-05 
-0.000184124 
-0.00358462 
-0.00931565 
-0.0118309 
-0.00311451 
-0.00168816 
-0.00289605 
-0.00354195 
-0.00769755 
-0.00482605 
-0.00263464 
-0.00276149 
0.000216869 
0.000101494 
-0.000995257 
-0.00125591 
0.00105733 
-0.000369332 
-0.0239959 
-0.0243728 
-0.0104968 
-0.00601111 
-0.00130477 
-0.0107566 
-0.0045351 
0.00023099 
-0.00328795 
0.000447831 
0.00115621 
0.00458727 
0.00263805 
0.0100096 
5.02488e-05 
-8.01107e-05 
-1.14831e-05 
-3.90681e-05 
-6.1909e-05 
-8.84828e-05 
-1.02803e-05 
-5.22923e-06 
-6.91865e-05 
-0.000122911 
-0.000181689 
-0.000116967 
-0.000150737 
-0.00023388 
-0.00013963 
-0.000336481 
-0.000126768 
-0.000169366 
-0.000285372 
-0.000322893 
-0.000181794 
-0.00017632 
-0.000257353 
-0.000269664 
-0.000226842 
-0.000206571 
-0.000219764 
-0.000135425 
-0.00032697 
-0.000344249 
-0.000288528 
-0.000119732 
-0.00415424 
-0.000415501 
-0.004481 
0.00343219 
-0.00121175 
0.000341275 
-0.00164354 
-0.000962727 
-0.000579021 
-0.00304822 
-0.00174777 
-0.00365568 
0.000947712 
0.00203016 
0.00304577 
0.000614861 
-0.000844202 
0.00320801 
-0.000642148 
0.00747238 
0.000979603 
0.00338873 
0.0107649 
0.00691691 
0.00386677 
0.00284617 
0.00323187 
0.00541051 
0.000524303 
0.00254084 
0.0010947 
-0.000404697 
7.6243e-05 
-8.84528e-05 
-8.43892e-05 
2.93769e-05 
-3.48674e-05 
-7.18666e-07 
-7.76825e-05 
1.86823e-05 
0.000120163 
-0.000181523 
4.34941e-05 
-0.000131735 
-0.000104746 
-5.28925e-05 
-4.99033e-05 
1.99778e-05 
-6.67813e-05 
-3.64024e-05 
0.000114682 
0.000264242 
0.000180314 
0.00024192 
0.000390487 
0.000338333 
0.000374643 
-0.00331894 
-0.000960214 
0.0020508 
0.00355766 
-0.000589749 
-0.00171057 
-0.000980608 
-0.00234295 
-0.00296815 
-0.00388493 
-0.00550229 
-0.00819457 
-0.00690281 
-0.0106883 
0.00355573 
-0.00920048 
-0.0115116 
0.000996259 
3.21228e-05 
5.05091e-05 
-0.00046815 
-0.0124824 
-0.0137986 
-0.003183 
-0.0163177 
-0.022065 
-0.0193438 
-0.00457318 
9.98721e-05 
-0.000275221 
-6.53825e-05 
-1.12363e-05 
-0.000295831 
-0.000189599 
-0.000167536 
-0.000214868 
-0.00020698 
-0.000168183 
0.000254854 
0.000201777 
0.000161965 
0.000235671 
0.000167881 
-2.6579e-05 
-8.73937e-05 
5.26037e-05 
-5.86754e-07 
-0.000189943 
-0.000174097 
-0.000132512 
-0.000128043 
-0.000122089 
0.00148013 
-0.00811838 
0.00362047 
-0.000195352 
-0.00869322 
-0.0136744 
0.00582491 
0.0023732 
-0.0010952 
-0.00139316 
0.000415401 
0.00241096 
0.00140987 
0.00219111 
-0.00891668 
0.000439114 
-0.0120307 
-0.00552233 
0.000795928 
0.00423715 
-0.00137173 
-0.00196028 
0.00246217 
0.00422209 
0.000120582 
0.0016602 
0.00334066 
-0.00987242 
-0.000120551 
-0.00012325 
1.72806e-06 
0.000113033 
-9.73976e-05 
1.98278e-05 
0.000168447 
0.000237473 
-0.000209894 
-3.5099e-05 
0.000155826 
9.27331e-05 
-0.000162432 
-0.000146415 
-5.11223e-05 
-9.30738e-05 
8.26311e-05 
3.4788e-05 
-6.96691e-05 
-0.000159488 
0.000176924 
6.47178e-05 
-9.01437e-05 
-0.000166407 
5.90052e-05 
5.10796e-05 
-0.000126836 
-0.000212925 
-0.000149407 
-0.000137479 
-0.000238579 
-0.000224419 
-0.00290908 
-0.00413638 
-0.00463384 
-0.00304249 
-0.0142269 
-0.0120513 
-0.00645012 
-0.00919984 
-0.00539227 
-0.0056659 
-0.014087 
-0.0083058 
-0.00325962 
-0.00218002 
-0.00120714 
0.000644733 
-0.00143319 
0.00226449 
0.0031828 
-0.00421364 
-0.000754579 
0.00359317 
0.00111976 
3.16312e-05 
0.00271319 
0.00581674 
0.00825316 
0.0039163 
-0.000122254 
-0.000110074 
-0.000111933 
-9.13946e-05 
-8.74037e-05 
-8.68341e-05 
-6.0137e-05 
-0.000126474 
-0.000104679 
-0.000126753 
-0.000193607 
-0.000217746 
-0.000138544 
-0.000203882 
-0.000211413 
-0.000159599 
-0.000132814 
-0.000128471 
-0.00015158 
-0.000105791 
-0.000177752 
-0.000138437 
-7.45267e-05 
-0.000122563 
-0.00138702 
0.000121712 
0.000869979 
0.000933579 
-0.00243007 
-0.00582448 
-0.0026179 
-0.000752452 
0.00883398 
0.00417533 
0.00355982 
0.00415204 
0.00110253 
0.00347672 
0.00042187 
-0.000681911 
0.00242642 
0.00118985 
-0.0036791 
-0.00556382 
0.000631989 
-0.00022607 
-0.000168404 
-0.0001815 
-0.000237836 
-0.000283689 
-0.000272467 
-0.000274871 
-0.000256008 
-0.000216948 
-0.000257618 
-0.000240462 
-8.28825e-05 
-0.000111007 
-0.000109515 
9.94014e-06 
0.00013358 
-0.000209529 
-0.000232029 
-0.000202128 
-0.000132868 
-0.000158383 
-0.000134073 
-7.23555e-05 
-2.92527e-05 
-5.22252e-05 
-0.000100982 
-2.61854e-05 
3.13582e-05 
0.000215755 
9.92053e-05 
0.000103045 
0.000294265 
0.00319573 
0.00570915 
0.00180392 
0.000778513 
0.0023948 
-0.00268854 
0.00436842 
0.00169706 
0.00601451 
0.00535944 
0.00174345 
-0.000721156 
0.00158604 
0.00432749 
0.00422333 
0.00040946 
-0.0065232 
-0.00513391 
-0.00640799 
-0.0100971 
-0.000544952 
0.0015474 
0.00126649 
-0.00314565 
-0.00337973 
-0.00381094 
-0.000919267 
-0.00135422 
-0.00374382 
-0.00449712 
-0.00192819 
-0.002723 
-7.4874e-05 
-1.08561e-05 
0.000123594 
0.000122354 
-0.000101475 
-6.23231e-05 
1.16544e-05 
3.16256e-05 
-8.78803e-05 
-4.04592e-05 
8.94752e-06 
-4.20409e-06 
0.000280257 
0.000355386 
0.000450613 
0.00054961 
0.000129569 
0.000294765 
0.00049763 
0.000378835 
3.00694e-05 
0.00012415 
0.00015505 
8.52309e-05 
-0.00259945 
0.00165934 
0.000166425 
-0.00379005 
-0.00799824 
-0.00896706 
-0.00323651 
0.00140753 
-0.00143507 
-0.00190952 
-0.00131833 
-0.00999815 
-0.0039821 
-0.00653615 
-0.0132899 
-0.01812 
-0.0166775 
-0.0184987 
-0.0017149 
-0.0208107 
-0.0238372 
-0.00454868 
-0.00261026 
-0.00616524 
-0.00017571 
-0.000240553 
-0.000277811 
-0.000295579 
-5.03567e-05 
-0.000152739 
-0.000251324 
-0.000175233 
4.2998e-05 
-3.60017e-05 
-7.25549e-05 
-5.79434e-05 
0.000236753 
6.33971e-05 
-4.11594e-06 
7.08702e-06 
-0.000249384 
-0.000213386 
-0.000103526 
-2.31803e-05 
-0.000156865 
-0.000171392 
-6.07276e-05 
-2.55269e-05 
-9.90246e-05 
-0.00011093 
-9.49135e-05 
-0.000108774 
-7.39144e-05 
-0.000128847 
-0.000162848 
-0.000163851 
2.4324e-05 
2.25867e-05 
-2.66861e-05 
-0.000186873 
0.000871204 
-0.00317502 
-0.00291336 
-0.00647087 
0.00594381 
0.00282469 
0.00615374 
0.0034817 
0.00249338 
0.00681967 
0.00308709 
0.00237133 
-0.00595553 
-0.00305128 
-0.00149485 
-0.00257194 
-0.000784478 
-0.000179455 
-0.000616507 
0.000780845 
0.00217735 
-0.00284202 
-0.00448176 
-0.00500131 
-0.000471763 
-0.00287478 
-0.00642908 
-0.00430289 
0.0025902 
0.000892656 
-0.00466429 
-0.00418685 
0.00164608 
0.00147738 
0.00239492 
0.00510036 
0.000531868 
0.000325525 
0.00014391 
0.000152078 
0.000415284 
0.000455257 
0.000267594 
0.000207179 
0.000102712 
0.000212837 
0.000198026 
0.000102375 
2.44186e-05 
-6.51508e-05 
-0.000122816 
-0.000108761 
0.000129253 
4.56796e-05 
-2.32069e-05 
3.09868e-05 
0.000204017 
0.000175564 
0.000144568 
0.000209961 
-0.000158566 
-3.94496e-05 
4.83469e-05 
-0.0207555 
-0.011806 
-0.00206384 
-0.00857769 
-0.00355221 
-0.0027048 
-0.00314634 
-0.0101106 
-0.00778488 
-0.00366491 
-0.00439775 
-0.00422406 
-0.00679978 
-0.00670245 
-0.00766429 
0.000445361 
-0.00175153 
-0.00108534 
0.000807302 
-0.00382525 
-0.000946244 
-0.00269295 
-0.00100647 
-0.010872 
-0.00880565 
-0.00404328 
-0.00427024 
-5.08965e-05 
-0.000112306 
-0.000128708 
2.25101e-05 
-5.74808e-05 
-5.24946e-05 
1.53163e-05 
1.37798e-05 
7.58247e-05 
-9.26884e-05 
1.13036e-05 
-2.9146e-05 
-0.000200913 
-0.00018409 
-0.0001034 
-0.000107617 
-0.000114137 
-0.000178448 
-0.000146467 
-0.000130789 
0.000159871 
1.45754e-05 
-1.61999e-05 
-4.41367e-06 
0.00015559 
0.000246073 
0.000183273 
0.00011688 
-0.00375644 
-0.00124416 
0.00111667 
0.0043288 
-0.00143585 
-0.00193453 
0.00234363 
0.00476793 
-0.00485021 
-0.00438622 
-0.00199916 
-0.0136937 
0.00633399 
-0.00280646 
-0.0120444 
-0.00630017 
0.00504382 
-0.00107254 
-0.00838178 
-0.00788766 
0.00272681 
0.00385578 
-0.00300951 
-0.00515881 
-0.00527057 
-0.00196724 
-0.000689151 
-0.000444903 
-0.0168743 
-0.00836493 
-0.00191607 
-0.00847048 
-0.00021217 
-0.000202029 
-0.000190049 
-0.000134991 
-0.000178714 
-0.000158137 
-3.79289e-05 
-0.000105887 
-0.000116601 
-0.000135619 
5.67391e-05 
0.00012183 
-6.24587e-05 
-0.000165682 
-0.000152403 
-0.000116887 
-4.97295e-05 
-6.08681e-05 
-4.03553e-05 
3.22497e-05 
-3.16738e-05 
0.0038876 
0.00650829 
0.000506652 
0.00184854 
-0.00126523 
-0.000244431 
0.00342226 
0.00328466 
-0.000115952 
0.000548178 
0.00176495 
0.0013076 
0.001344 
-0.00988413 
-0.00419823 
-0.00015126 
0.0037481 
0.00403424 
0.000548711 
-0.00100608 
-0.0180361 
-0.00947099 
-0.00885159 
-0.0159908 
ITEM: TIMESTEP
2600000
ITEM: NUMBER OF ATOMS
896
ITEM: BOX BOUNDS pp pp ff
-1.7153631884999999e+01 1.8003017117999999e+01
-1.7855467918999999e+01 1.7553981017000002e+01
-3.4618715923000003e+01 3.4618715923000003e+01
ITEM: ATOMS q 
-0.000177675 
-0.000159445 
-5.56718e-05 
5.90176e-06 
-0.000148688 
-9.57761e-05 
-2.05899e-05 
-7.97402e-06 
-0.000112329 
-0.000115579 
-5.63658e-05 
-7.94961e-05 
-0.000142419 
-0.000130756 
7.23463e-06 
1.01885e-05 
-1.59645e-05 
-5.88175e-05 
1.01364e-05 
1.967e-06 
-4.03605e-05 
-6.51929e-05 
-9.89713e-05 
-4.71637e-05 
-6.6368e-05 
-8.35217e-05 
-0.000141176 
-0.000111207 
-0.00405668 
-0.00292467 
-0.00153686 
-0.00293885 
-0.0035421 
-0.000141637 
-0.00221914 
-0.00496654 
-0.00615887 
-0.000710217 
0.00107731 
0.000844168 
0.00168819 
0.00136949 
-0.00186021 
-0.000111871 
0.00124907 
-0.0046681 
0.000297805 
0.0020191 
0.000181921 
0.00100202 
0.00349606 
0.00137961 
0.000989824 
-0.000163339 
-0.000137593 
-0.000127997 
-0.00012953 
-0.000100205 
-2.59819e-05 
-8.12853e-05 
-4.34388e-05 
1.2942e-05 
3.50809e-05 
-6.84966e-05 
-3.92029e-05 
2.26354e-05 
-6.59118e-06 
-0.000143668 
-9.0674e-05 
-2.01418e-06 
-6.83832e-05 
-5.75218e-05 
-6.02644e-06 
3.01668e-05 
2.99479e-05 
2.27082e-05 
-1.88611e-05 
-6.2814e-05 
-3.62296e-05 
-6.89028e-05 
-0.000113724 
0.0012163 
0.00414811 
-0.00391482 
-0.000301208 
0.00246848 
-0.0020263 
-0.00416243 
-0.00139875 
-0.00442369 
-0.00337948 
-0.00482011 
-0.00556953 
-0.0013836 
0.00336656 
0.00356631 
-0.00454445 
0.000781638 
0.000777759 
-0.00295701 
-0.00220473 
-0.00272242 
0.00319979 
0.000268693 
0.00280209 
-8.10505e-05 
-9.40353e-05 
-0.000186377 
-0.000200299 
-9.57855e-05 
-9.86327e-05 
-0.000136144 
-5.66333e-05 
-8.94874e-06 
-1.54525e-05 
6.24056e-05 
0.000196641 
7.21028e-05 
0.000206451 
-0.000207978 
-0.000209139 
-0.000180612 
-0.000111073 
-2.27551e-05 
-0.000110027 
-3.57253e-05 
0.000127025 
0.000314359 
0.000236997 
0.000307205 
0.00026764 
0.000296238 
0.000232521 
-0.000976055 
0.000566899 
-0.000462138 
-0.00226338 
0.00178451 
0.00985532 
0.00450876 
0.000484672 
0.00209982 
0.00653543 
0.00169329 
-0.00790462 
-0.00192284 
-0.00210194 
-0.0093017 
-0.0112088 
-0.00757291 
0.00106957 
0.00512256 
0.00300696 
-0.00107576 
-0.000476963 
0.00301644 
-0.0255494 
-0.0134469 
-0.00665323 
-0.00502699 
-0.000612349 
-3.43422e-06 
0.000143868 
-3.89534e-05 
-4.64695e-07 
2.60275e-05 
-2.19689e-05 
-3.9582e-05 
-4.31096e-05 
-4.63323e-05 
-9.56306e-06 
-0.000104497 
-7.24257e-05 
-2.95702e-05 
-3.229e-05 
0.000140098 
0.000100293 
2.36756e-05 
7.08231e-05 
0.000104946 
0.000149772 
4.51707e-05 
6.34307e-05 
0.000144065 
0.000147059 
5.65523e-06 
5.9111e-05 
8.83419e-05 
1.48246e-05 
-0.000703139 
-0.00153208 
-0.00186478 
0.00195103 
-0.00591679 
-0.00371918 
0.00274581 
-0.000850055 
-0.00255531 
0.000579456 
-0.00288796 
-0.000262746 
0.000358566 
-0.00239575 
0.00150842 
-0.000479682 
-0.0029469 
-0.00313362 
0.000575223 
-0.00242951 
-0.00345162 
-0.00645639 
-0.00548819 
-0.00404238 
-0.00794799 
-0.00332078 
-0.00454041 
-0.00286044 
-3.84962e-06 
3.53997e-06 
0.000130672 
0.000201911 
0.000188245 
0.000162206 
0.000268412 
0.000328522 
0.000112491 
0.000200743 
0.000261074 
0.000110163 
-1.61287e-05 
-6.92755e-05 