ITEM: TIMESTEP
4600000
ITEM: NUMBER OF ATOMS
896
ITEM: BOX BOUNDS pp pp ff
-1.7153631884999999e+01 1.8003017117999999e+01
-1.7855467918999999e+01 1.7553981017000002e+01
-3.4618715923000003e+01 3.4618715923000003e+01
ITEM: ATOMS q 
-7.43601e-05 
-0.000224184 
0.000127071 
0.000238069 
6.21319e-06 
6.29079e-05 
0.000219516 
0.000199579 
-9.18163e-05 
2.20099e-05 
0.000152769 
0.000116906 
-2.01742e-05 
9.17228e-05 
0.000239951 
0.000146879 
3.84982e-05 
8.47423e-06 
0.000105659 
0.000134908 
1.49321e-05 
-4.89533e-05 
2.52857e-05 
-1.0821e-05 
-3.8429e-05 
7.22621e-05 
-1.91128e-06 
3.31065e-05 
-0.0098205 
-0.0122161 
-0.0118455 
-0.0130733 
-0.0160505 
-0.0103697 
-0.0107316 
-0.00130028 
-0.0127151 
-0.00852528 
-0.00264812 
-0.00143218 
-0.0105384 
-0.006437 
-0.00696251 
-0.00727805 
-0.00122157 
-0.00326504 
-0.00315428 
0.0035612 
0.00368237 
0.00364046 
-0.000820775 
-0.000826722 
-0.0118974 
-9.6652e-05 
-7.54085e-06 
-2.68446e-05 
-0.000109317 
-0.000111093 
-0.000152455 
0.000100306 
-0.000107021 
-0.000158644 
-0.000146761 
8.46317e-06 
-0.000137696 
-0.000120051 
-9.02183e-05 
-3.55597e-06 
2.71726e-05 
-0.000155855 
-8.68465e-05 
-8.20044e-05 
-0.000145128 
-0.000149916 
-0.000151836 
-0.000143473 
-8.70342e-05 
-7.79859e-05 
-7.42731e-05 
2.35483e-06 
0.000127431 
-0.00167716 
-0.00363761 
-0.000558324 
0.00252258 
-0.000911946 
0.00203567 
-0.00544611 
9.21948e-05 
0.00442458 
0.000253274 
-0.0110672 
-0.00218516 
0.00271438 
0.0036756 
-0.00232556 
0.000400112 
-0.00134809 
-0.00051203 
-0.00185185 
-3.49809e-05 
0.0042194 
-0.00435775 
-0.00296807 
-0.00515685 
-6.84475e-05 
-5.42029e-05 
-4.75912e-05 
-2.56548e-05 
-4.84304e-05 
-6.03294e-05 
-3.11174e-05 
-3.02399e-05 
0.000207006 
9.96867e-05 
7.02255e-05 
-5.18737e-07 
0.000112082 
-2.5811e-05 
-9.50678e-05 
-1.03077e-05 
2.1743e-05 
8.37091e-06 
-3.66667e-05 
-7.88377e-05 
-3.59477e-05 
-7.45145e-06 
-0.000110504 
-3.50673e-05 
-1.87856e-05 
-0.000112353 
-0.000194011 
-0.000203342 
0.000626421 
0.0026866 
-0.0192126 
-0.00131766 
-0.010809 
-0.0120639 
0.00441968 
-0.00383397 
-0.003006 
0.00223792 
-0.000200928 
-0.0123021 
-0.00473521 
-0.00189118 
0.00062106 
-0.000233829 
0.0020758 
0.0057745 
-0.00721009 
-0.00977308 
-0.00869125 
0.00179173 
-0.00494367 
0.00171603 
-0.00883157 
-0.00281154 
0.00442937 
0.00213608 
1.71086e-05 
-0.000141626 
-0.000162462 
-0.000118822 
-0.000145216 
-0.000100052 
-8.01896e-05 
-0.00014323 
-7.16237e-05 
6.86018e-05 
0.000109055 
2.43022e-07 
5.3371e-05 
0.000172404 
-0.000202137 
-0.000177746 
-3.09152e-05 
-0.00014151 
-0.000118976 
-1.09116e-06 
0.00025124 
0.000165417 
0.000173913 
0.00018356 
0.000239798 
0.000289785 
0.000250526 
0.000101777 
-0.00565898 
0.00382146 
-0.000709562 
-0.00256819 
0.00121899 
0.00360788 
0.00202113 
0.000878556 
0.00103977 
-0.00235097 
0.000928987 
0.00192156 
-0.00325909 
-0.0134583 
-0.00212349 
-0.00125361 
-0.00500106 
-0.00937223 
0.00563508 
-0.00297153 
0.00181466 
-0.000763492 
-0.0209701 
-0.00813739 
-0.00308372 
-0.00773459 
-0.00910898 
-0.00352903 
8.68524e-05 
0.000147462 
0.000224111 
0.000179983 
-5.29051e-05 
2.24923e-05 
5.4292e-05 
-1.44145e-05 
-0.000119047 
-0.000100958 
-9.08813e-05 
3.15185e-05 
-7.12237e-05 
5.63404e-05 
6.13108e-05 
-1.20157e-05 
-0.000129931 
-0.000110005 
3.22426e-05 
-7.95466e-06 
-7.20981e-05 
1.14731e-05 
0.000153746 
6.81925e-05 
0.000104405 
0.000271043 
0.000325223 
0.000392126 
-7.02336e-05 
3.80379e-05 
0.000280808 
-0.00380536 
-0.00195172 
0.00163345 
-0.00594561 
-0.0290604 
-0.00893829 
-0.0036204 
0.00499989 
-0.00296512 
-0.00599422 
-0.00325092 
0.00330567 
0.00183964 
-0.00258395 
-0.00481843 
-0.00199149 
-0.0102107 
0.00329568 
0.00281411 
0.000739691 
-0.00102752 
-0.00262918 
0.00211933 
-0.00195667 
-0.00385973 
-0.00367361 
-0.00409625 
-0.0041994 
-0.00665208 
-0.0126329 
-0.017517 
-6.03294e-05 
0.000253977 
1.24898e-05 
3.90868e-05 
0.000231737 
0.000180277 
-7.12851e-06 
-1.26064e-05 
-3.45287e-05 
-0.000130137 
-5.40504e-05 
-0.000102287 
-0.000197232 
-0.000137042 
0.000410333 
0.000474115 
0.000258268 
0.000434911 
0.000452552 
0.000306854 
-9.02589e-05 
8.75168e-05 
0.000131453 
-1.90841e-05 
-6.68449e-05 
-9.68645e-05 
-7.14198e-05 
3.60381e-06 
0.00046274 
0.000280639 
-3.00273e-05 
-3.3995e-05 
0.000895938 
-0.00185511 
-0.00190357 
-0.000106601 
-0.00570261 
-0.0141101 
-0.00144003 
-0.0137699 
-0.0205634 
-0.0024577 
0.00240529 
-0.000260752 
-0.0014555 
0.000540276 
0.00390696 
0.00473241 
0.00212529 
0.00163396 
-0.00946937 
-0.0150245 
-0.0110373 
-0.0180951 
-0.0164243 
-0.00755033 
0.00144237 
-0.00651042 
-0.00550624 
0.000315808 
-0.000781832 
0.00154925 
0.00141168 
-0.00113439 
-7.59381e-05 
-1.44006e-05 
3.60289e-06 
-9.2318e-06 
1.23876e-05 
7.08697e-06 
0.00013095 
7.79636e-05 
0.000114751 
0.000371444 
0.000275456 
4.84195e-05 
2.78873e-05 
0.00013393 
0.000219927 
2.70621e-05 
9.35592e-05 
0.0001726 
0.000116156 
1.92298e-05 
1.67967e-05 
4.55489e-05 
-2.91899e-05 
7.20937e-05 
3.7175e-08 
-0.00366118 
-0.00470286 
-0.00327974 
-0.00318428 
-0.0028855 
-0.00236626 
-0.00189521 
-0.000387126 
-0.00824768 
-0.00415767 
-0.000199683 
0.00202102 
-0.0102654 
-0.00886778 
-0.00422608 
-0.0123398 
-0.0190686 
-0.00833052 
-0.00731782 
-0.00980675 
-0.00849565 
-0.0103302 
0.00163899 
-0.00532772 
-0.00627991 
-0.00261587 
-0.00170075 
-0.000478293 
0.000280473 
0.000380339 
0.0003065 
0.000172788 
9.16064e-05 
6.28187e-05 
-4.93414e-05 
-9.78092e-05 
-9.99625e-05 
-4.96406e-05 
0.000177912 
1.67879e-05 
0.000147432 
0.000163 
0.000109967 
0.000207427 
3.01701e-05 
0.000119009 
0.000211403 
0.000493963 
3.4165e-05 
9.14773e-05 
0.000346539 
0.000505697 
-0.00730975 
-0.00557011 
-0.00789987 
-0.0120419 
-0.00864951 
-0.00516395 
0.000616507 
-0.00308624 
-0.00252345 
-0.000546515 
0.000783218 
0.00247007 
0.00197942 
0.000237223 
-0.00425152 
-0.00200713 
-0.00554622 
-0.00565096 
-0.00444284 
-0.00656987 
-0.00386725 
-0.00692896 
-0.00901724 
-0.0228503 
-0.00636288 
-0.00942936 
-0.0276336 
-0.0260138 
-0.000126386 
-0.000175756 
-8.83233e-05 
-3.86957e-05 
-0.000164021 
-0.000144165 
-2.95483e-05 
-4.16816e-05 
-0.000196925 
-0.000120617 
-7.41066e-05 
-5.14415e-05 
-0.000120399 
-5.69302e-05 
2.49697e-05 
0.000132122 
2.5669e-05 
4.5928e-05 
0.000200686 
0.000231559 
-3.05326e-05 
6.56832e-05 
0.000151433 
0.000128434 
-8.54006e-05 
-7.22286e-05 
1.99708e-05 
0.000131386 
0.000163855 
3.89844e-05 
0.00014027 
0.00023705 
-0.00889705 
-0.00159189 
0.00260922 
-0.00133809 
-0.00738644 
-0.00506158 
-0.00325915 
-0.000878611 
-0.00435799 
-0.000991971 
0.00196736 
0.00539072 
-0.00372953 
-0.00365407 
-0.0037556 
-0.00820454 
-0.00878386 
-0.0148191 
-0.00855725 
-0.00172773 
-0.00623991 
-0.00882566 
0.00340566 
-0.00107677 
-0.00482741 
-0.00622428 
-0.00585454 
-0.0146799 
-0.00010546 
4.23513e-05 
0.000189586 
0.000250537 
-0.000301436 
-5.26492e-05 
0.000253989 
0.000252842 
-0.000386749 
-0.000215755 
0.000119653 
0.00012975 
0.000219552 
0.000200645 
0.000195565 
0.00017615 
0.000162016 
0.00015597 
0.000123775 
7.97953e-05 
0.000143488 
9.14543e-05 
4.35243e-05 
-3.40671e-06 
-0.0202403 
-0.0090254 
-0.00687987 
-0.00742837 
-0.0254095 
-0.0151642 
-0.0088026 
-0.00137787 
-0.0176262 
-0.0101732 
-0.00504108 
-0.00706481 
-0.00541063 
-0.00673787 
-0.00643289 
-0.000666023 
-0.00434439 
-0.00741912 
-0.00765002 
-0.00230271 
-0.00236042 
0.000271071 
0.000202668 
0.000219748 
0.000354919 
0.000224119 
0.000299855 
0.00038839 
0.000315015 
0.000263063 
0.000233991 
0.000233712 
0.000196486 
0.000248824 
0.000250394 
0.000196253 
0.000168307 
0.000318435 
0.000235861 
0.000142589 
9.10064e-05 
0.000381304 
0.000367656 
0.000242599 
0.000311456 
0.000206964 
0.000351842 
0.000446516 
0.000243562 
0.000168058 
0.000185469 
0.000141898 
-1.92793e-05 
-0.00838743 
-0.00366595 
-0.0140086 
-0.00696098 
-0.00620105 
-0.0071752 
-0.00834463 
-0.00740484 
-0.00704865 
-0.0182831 
-0.0181108 
-0.00883033 
-0.00518673 
-0.00584783 
-0.00543626 
-0.0013896 
-0.00643331 
-0.00489258 
-0.00672563 
-0.0104207 
-0.00388079 
-0.0052754 
-0.00176938 
-0.0124257 
-0.00735355 
-0.0051105 
-0.00444786 
-0.0267978 
-0.0213417 
-0.00997978 
-0.0076124 
0.000726877 
0.000185314 
0.000196221 
0.000154265 
9.7841e-05 
0.000108855 
0.000139101 
0.000106623 
0.000144966 
-6.71271e-06 
8.76276e-05 
0.000132014 
-1.74914e-05 
5.06684e-05 
9.44216e-05 
-8.43469e-06 
-7.9011e-05 
0.000150082 
5.68036e-05 
2.75698e-05 
0.000128231 
0.000216567 
0.000280587 
0.00025745 
0.000159158 
-0.00846177 
-0.00394422 
-0.00067536 
-0.00542603 
-0.00543335 
-0.00309782 
-0.00169062 
-0.00329685 
-0.00400566 
-0.00187823 
-0.00236088 
-0.0139151 
-0.00942808 
-0.0124642 
-0.0237778 
-0.00330815 
-0.000456063 
0.00365548 
-0.00108184 
-0.0022204 
-0.00117741 
-0.0183985 
-0.0134761 
-0.00998896 
-1.80716e-05 
-0.000106982 
-9.48155e-05 
5.50888e-05 
0.000166582 
8.31697e-06 
2.76221e-05 
1.09737e-05 
5.41759e-05 
6.83907e-05 
-0.000103197 
-0.000175857 
-0.000168102 
-0.000165996 
-0.000226963 
-0.000177862 
0.000270273 
0.000187379 
0.000219679 
0.000266879 
6.81673e-05 
0.00027269 
0.000288706 
0.000111377 
-0.000128759 
-1.14441e-05 
2.3833e-05 
-2.08937e-05 
-8.87219e-05 
-8.42383e-05 
-1.13026e-05 
5.83679e-05 
0.000134849 
0.0001433 
6.02214e-07 
4.45861e-06 
0.00193246 
-0.00563852 
-9.30461e-06 
0.00402022 
0.000921125 
0.00206915 
-0.0013513 
-0.0162369 
-0.00162708 
-0.00299615 
-0.00529651 
-0.00510336 
0.00550075 
0.0026518 
0.000645772 
0.00153891 
0.00326784 
0.00506861 
0.0033087 
0.000508559 
-0.0262715 
-0.00831533 
-0.00536557 
-0.00360361 
-0.00670027 
-0.0117246 
-0.00204357 
-0.00218232 
-0.00123241 
-0.000823934 
-0.000755074 
-0.00110743 
-0.00271756 
-0.00304815 
-0.00253855 
-0.00248894 
-0.000125598 
-0.000187455 
-0.000145436 
-5.51214e-05 
0.000103898 
-3.18831e-05 
-1.13172e-05 
3.15482e-05 
0.000242785 
0.000252622 
0.000136237 
6.93427e-05 
7.82251e-05 
7.07944e-05 
0.000150254 
0.000268475 
5.67945e-05 
0.00017234 
0.000316932 
0.000235716 
-4.23405e-05 
3.82605e-05 
8.76717e-05 
-2.73285e-05 
0.000191245 
0.000183988 
-4.48693e-06 
0.00240342 
-0.00162308 
-0.0150995 
-0.000778138 
0.000279864 
-0.000775223 
-0.00475564 
-0.00224814 
-0.00163608 
-0.00301249 
-0.000573693 
-0.0289265 
-0.00714975 
-0.000192221 
-0.00389654 
-0.00969896 
-0.00748144 
-0.00707593 
-0.00957033 
-0.00506422 
-0.0181138 
-0.0175438 
-0.00547225 
-0.00025766 
-0.00420237 
-0.00416522 
-0.00389962 
4.04373e-05 
2.75922e-05 
0.000203194 
0.000203932 
0.000303204 
0.00029762 
0.000109006 
0.000185571 
1.47966e-05 
-4.89802e-05 
-0.000102443 
-0.000189816 
0.000194373 
0.00011357 
0.00022036 
0.000211227 
0.000266789 
0.000228012 
0.000113189 
2.68717e-05 
-5.45635e-05 
6.11649e-05 
-4.1036e-05 
-0.000200798 
-0.000225864 
-0.000191032 
-0.0001938 
-0.000196679 
-0.00302505 
-0.00114644 
-0.00332216 
-0.00573496 
-0.0117143 
-0.0156148 
-0.0168445 
-0.0139067 
-0.00267971 
-0.00984914 
-0.0112659 
0.000894606 
0.00124274 
0.000278561 
0.00454718 
0.004828 
-0.0016668 
-0.0076258 
-0.0102845 
-0.0123925 
-0.00310874 
-0.00126541 
-0.00709019 
-0.0104949 
0.00330507 
-0.000678832 
-0.00188482 
0.000880854 
0.00215831 
0.00349485 
0.00148839 
0.00048179 
8.48579e-06 
-0.000140503 
-0.00013466 
0.000152711 
-2.70851e-05 
-6.54099e-05 
5.53819e-05 
-1.18365e-05 
-4.77724e-05 
-0.000155541 
-0.000180095 
-9.87206e-05 
-1.21174e-05 
-9.04885e-05 
-8.36116e-05 
1.53318e-05 
7.1518e-05 
-5.5642e-05 
-2.30909e-05 
5.37189e-05 
1.52901e-05 
-0.000810553 
0.00403596 
0.00407614 
0.00152353 
-0.00496636 
-0.000980821 
-0.000294966 
0.00109954 
-0.00738499 
-0.00150616 
0.00259672 
0.00108129 
-0.00146449 
-0.00197907 
-0.00353612 
-0.0121942 
0.00107112 
-0.00321437 
-0.00845607 
-0.0206656 
-0.00771641 
-0.00389504 
-0.0100818 
-0.0251038 
ITEM: TIMESTEP
4800000
ITEM: NUMBER OF ATOMS
896
ITEM: BOX BOUNDS pp pp ff
-1.7153631884999999e+01 1.8003017117999999e+01
-1.7855467918999999e+01 1.7553981017000002e+01
-3.4618715923000003e+01 3.4618715923000003e+01
ITEM: ATOMS q 
-0.000417986 
-0.000806733 
-5.30506e-06 
0.00019355 
-1.72866e-07 
-0.000107726 
8.5487e-05 
0.00010245 
-1.3236e-05 
-8.45372e-05 
3.2066e-05 
0.000165651 
7.63592e-05 
0.00027048 
0.000241806 
0.000253624 
0.000269082 
0.000222682 
0.000110925 
0.00016545 
0.000143944 
0.000141952 
0.000164802 
0.000102096 
0.000151705 
0.000200819 
0.000272861 
0.000261311 
-0.0171544 
-0.0168631 
-0.00794831 
-0.00865762 
-0.0063852 
-0.00588491 
-0.00956755 
0.00181693 
-0.011777 
-0.000999995 
0.00126947 
-0.00289843 
-0.0146038 
-0.00738601 
-0.00385201 
-0.00461373 
-0.0166719 
-0.00175782 
-0.00269022 
-0.000350201 
-0.00269393 
-0.00371218 
-0.00536357 
-0.00561571 
-0.00528261 
-4.77186e-05 
0.000350366 
-7.65938e-05 
0.000156013 
0.0003698 
0.000444345 
-9.24647e-05 
0.000124852 
0.000408866 
0.000401243 
-5.51863e-05 
2.80408e-05 
0.000173196 
0.00021386 
0.000347016 
0.000280698 
0.000481374 
0.000411224 
0.000388248 
0.000384767 
0.000623643 
0.000642403 
0.00058628 
0.000486209 
0.000406163 
0.000593889 
0.000557964 
0.000269064 
-0.00809751 
-0.00422182 
-0.0206603 
-0.01211 
-0.00745205 
-0.0120776 
-0.00124005 
-0.0176525 
-0.0136094 
-0.0112933 
0.00358322 
0.00192837 
-0.0100966 
-0.0179183 
-0.013648 
-0.00872775 
-0.0114157 
-0.00356149 
-0.0316818 
-0.0150229 
-0.00904513 
-0.0100875 
-0.0200448 
-0.00370399 
0.000254445 
0.000296521 
0.000316493 
0.000242424 
0.000183221 
0.000236605 
0.000244905 
0.000181471 
0.000233784 
0.000218722 
0.00021113 
0.000180973 
0.000194184 
0.000174886 
0.000154058 
0.000102729 
0.00010657 
0.000200486 
0.000165079 
0.000163139 
0.000206479 
0.000232141 
0.000136262 
0.000162484 
0.000201993 
0.000177148 
0.000147524 
0.000160018 
-0.00897393 
-0.00417692 
-0.00740381 
-0.0127226 
-0.0212613 
-0.00289546 
-0.00253835 
-0.00517151 
-0.0045832 
-0.00321524 
-0.00196232 
-0.00991613 
-0.00596812 
-0.0020991 
-0.00248402 
-0.00579677 
-0.00332669 
-0.00341811 
-0.00451773 
-0.00566046 
-0.00818629 
-0.00417022 
-0.00800356 
-0.00254334 
-0.00771541 
-0.00516409 
-0.00295708 
-0.00246833 
0.000178657 
0.000119901 
0.000241482 
0.000152308 
0.000112807 
0.00012388 
0.000245149 
0.000209311 
0.000140874 
0.000127761 
7.81194e-05 
0.000122982 
8.78534e-05 
4.97654e-05 
0.00014344 
0.00021309 
0.000121562 
0.000138921 
0.000201913 
0.000191902 
0.000105471 
0.000100736 
0.000101114 
6.40637e-05 
9.94235e-05 
9.49869e-05 
5.00697e-05 
5.76225e-05 
-0.0021244 
-0.00355084 
-0.00368347 
0.00271135 
-0.000607572 
-0.00440555 
-0.00193507 
-0.00212101 
-0.00362347 
-0.0030221 
-0.00337207 
-0.0050581 
-0.00362842 
-0.00403788 
0.000908487 
-0.00383686 
-0.00523495 
-0.00477964 
-0.00495766 
-0.00383021 
-0.00649599 
-0.00621267 
-0.00153182 
0.000634864 
-0.00363275 
-0.00282498 
-0.00156484 
0.000962911 
0.000285031 
0.000237229 
0.000467596 
0.000582484 
0.000279758 
0.000337817 
0.000477805 
0.000537679 
0.000232921 
0.00029626 
0.000402202 
0.000435201 
0.000324302 
0.000439211 
0.000640899 
0.000558174 
0.000507958 
0.0005819 
0.000736979 
0.000722018 
0.000700396 
0.000515249 
0.000459576 
0.000612892 
0.000480105 
0.000294717 
0.000421483 
0.000387404 
0.00054935 
0.000265081 
0.000152689 
-0.00799518 
-0.00625792 
-0.00290166 
-0.00883983 
-0.012811 
-0.0274582 
-0.0166536 
-0.00546344 
-0.00857121 
-0.0152151 
-0.0244396 
-0.00660554 
-0.00638114 
-0.00931743 
-0.00799754 
-0.0136425 
-0.00923247 
-0.0136797 
-0.00825095 
-0.0171925 
-0.0235206 
-0.0334701 
-0.0200814 
-0.00529733 
-0.00109286 
-0.00659279 
-0.00369327 
0.000386363 
0.000167888 
-0.0158021 
-0.00783712 
0.000311299 
0.000457087 
0.000320157 
0.000418157 
0.000472701 
0.000448309 
0.000126959 
0.000316262 
0.000435146 
0.000273595 
9.02235e-06 
5.85588e-05 
0.000101422 
4.17511e-05 
0.000420687 
0.000233539 
0.000337043 
0.00032197 
0.000186315 
5.79573e-05 
0.000232027 
0.000238525 
0.00010023 
0.000205128 
0.000128745 
0.000190237 
0.000300123 
0.000300982 
0.000129025 
8.40952e-06 
0.000194469 
0.000353714 
-0.00579384 
-0.00796066 
-0.00125355 
0.00228065 
-0.0143734 
-0.00808347 
-0.0136345 
-0.0122424 
-0.00920078 
-0.00913938 
-0.00725382 
-0.0190976 
-0.015099 
-0.00321039 
0.00310742 
-0.00133016 
-0.00116597 
0.0017166 
-0.0131022 
-0.00368721 
-0.000147701 
-0.00248477 
-0.000908841 
0.00262874 
4.44577e-05 
0.000364524 
3.27153e-05 
-0.00279384 
-0.0100011 
-0.0138508 
-0.0170301 
-0.0116781 
0.000330974 
0.000264582 
0.00036702 
0.000405837 
0.000351553 
0.000263161 
0.000122518 
0.000157619 
0.000235651 
0.000130002 
0.000175146 
0.000347452 
0.000298883 
0.000276956 
0.000421201 
0.00042618 
0.000504904 
0.000641192 
0.000650113 
0.000346319 
0.00044283 
0.000485476 
0.000329226 
0.000279061 
0.000193404 
-0.0209948 
-0.0109885 
-0.00125977 
-0.00743852 
-0.00197326 
-0.00444238 
-0.00730449 
-0.0100678 
-0.000329372 
-0.000419903 
-0.00205117 
-0.0111331 
-0.00262452 
-0.0146672 
-0.0146453 
-0.00900715 
-0.0209275 
-0.0176024 
-0.0209055 
-0.0257613 
-0.00982919 
-0.0226062 
-0.00961382 
-0.00627272 
-0.0127643 
-0.00999964 
-0.00722571 
0.000355807 
0.000200614 
4.18491e-05 
6.75911e-05 
7.26363e-05 
5.91088e-05 
8.66055e-05 
0.000130944 
0.000293905 
0.000208647 
0.000259212 
0.000236208 
-6.06515e-05 
9.90868e-07 
9.53591e-06 
-0.000154283 
-0.000331347 
4.25217e-05 
-0.000103743 
-0.000250612 
-0.000218714 
0.000161248 
3.15166e-05 
-4.32185e-05 
-8.30841e-05 
-0.000929861 
-0.0126346 
0.0019329 
-0.0007294 
-0.00409704 
-0.00572756 
-0.00367953 
-0.00370461 
-0.00716744 
-0.00201296 
-0.0052382 
-0.00506486 
-0.00303007 
-0.00302791 
-0.0071011 
-0.000671862 
0.0132543 
0.00957708 
0.00629072 
0.00145813 
-0.000325563 
0.0120244 
0.00493272 
-0.00198841 
-0.00331759 
-0.00179964 
0.0009308 
0.00277255 
-6.41001e-05 
1.54784e-05 
8.41486e-05 
6.38543e-05 
-0.000123024 
-1.75988e-05 
8.71552e-06 
-3.06951e-05 
-0.000208712 
-0.000111048 
-4.61475e-05 
1.44967e-05 
-0.000139779 
-0.000177479 
2.90098e-05 
0.000164876 
6.07365e-05 
0.000238559 
0.000174649 
2.00998e-05 
-6.79888e-05 
-2.59952e-05 
-1.82926e-05 
-8.8589e-05 
-1.79829e-05 
-0.000100169 
-0.000138769 
-0.00010627 
0.000161924 
1.37748e-05 
-3.90343e-05 
0.000113177 
-0.00184939 
-0.00242951 
-0.00690801 
0.00231537 
-0.00257365 
-0.0041042 
0.000530191 
0.00212089 
-0.00699197 
0.000744226 
-0.000852614 
-0.000725047 
-0.0123012 
-0.00534653 
-0.00296004 
-0.00513226 
-0.000676048 
-0.0036023 
-0.000348028 
0.0035603 
-0.00233036 
-0.00490226 
0.00258273 
0.00434699 
0.0020395 
-0.000806598 
0.00301323 
0.00111101 
-3.61929e-06 
-1.56676e-05 
0.000165506 
0.000291507 
-1.74197e-05 
5.44258e-05 
0.000254067 
0.000416128 
-0.000704951 
-6.87094e-05 
0.000255221 
0.000222553 
0.000336957 
0.0002108 
0.000211876 
0.000330478 
0.000484288 
0.000360155 
0.000306944 
0.000328385 
0.000380749 
0.000385759 
0.000295153 
0.000313429 
-0.00471938 
-0.00634106 
-0.00957695 
-0.00829704 
-0.0102812 
-0.00628132 
-0.0133595 
-0.0175828 
-0.0233887 
-0.0113208 
-0.0198216 
-0.00854126 
-0.00387938 
-0.00315628 
-0.00712784 
-0.0057952 
-0.00206697 
-0.00817353 
-0.00535454 
-0.00489012 
-0.00354106 
-2.02099e-05 
-2.9865e-05 
-2.62846e-05 
-5.00717e-06 
-0.000101987 
-8.38399e-05 
-8.21662e-05 
-0.0001193 
-0.000111227 
-0.000167562 
-0.000205619 
-0.000160472 
0.000134438 
-3.37561e-05 
-5.68037e-05 
1.31216e-05 
0.000131998 
0.000156656 
0.000173591 
0.000307436 
3.76066e-05 
0.000217269 
0.000400235 
0.00033272 
-0.000116246 
9.17671e-06 
0.000145099 
6.27371e-05 
-6.82198e-05 
-8.91255e-05 
-4.03621e-05 
-5.7458e-05 
-0.000954064 
2.88855e-05 
-0.000843127 
-0.00339766 
0.00210817 
0.00203176 
-0.0013635 
-0.00297766 
0.00319812 
0.0014817 
-0.000804649 
-0.00234199 
0.00277452 
0.0101738 
0.00588204 
0.00111003 
-0.00494391 
0.000186821 
0.00280192 
0.00303616 
-0.0108593 
-0.00363199 
-0.00172279 
-0.00875934 
-0.0196478 
-0.0135185 
0.0012663 
-0.00295374 
-0.0040516 
-0.000744933 
-0.000205122 
-0.000721223 
0.000457064 
0.000327303 
0.000219636 
0.000201718 
0.000341384 
0.000399685 
0.00029598 
0.000149019 
0.00044346 
0.000407027 
0.000278624 
0.000244092 
-3.79693e-06 
-6.04653e-05 
-9.493e-05 
-0.000128377 
-2.39493e-05 
-8.6281e-05 
-0.000170751 
-0.00017943 
2.93501e-05 
-7.50153e-05 
-0.00015853 
-6.89055e-05 
-0.0224562 
-0.00636867 
-0.0248121 
-0.0185981 
-0.00507338 
-0.0005697 
-0.00157781 
-0.00604946 
-0.00806207 
-0.00168776 
-0.000420681 
-0.0277207 
-0.00253058 
-0.000429559 
-0.00201058 
0.00201813 
0.000320317 
0.00147314 
0.00420926 
0.00547458 
0.00427805 
-0.00197565 
0.00584523 
0.00702092 
0.000286159 
0.000111982 
0.000101124 
0.000258079 
0.000427164 
0.000446308 
0.000447174 
0.000536571 
0.000183308 
0.000400203 
0.000554104 
0.000488918 
-8.20284e-07 
0.000140676 
0.000295856 
0.000280472 
0.000194628 
0.000150094 
0.000220208 
0.000181082 
0.000470632 
0.000268231 
0.000166718 
0.000302139 
0.000589193 
0.000556209 
0.000494439 
0.000561819 
0.000406286 
0.000541559 
0.000591596 
0.000386929 
0.000311005 
0.000373219 
0.000559967 
0.000271749 
-0.00627397 
-0.00686035 
-0.00174671 
0.000972206 
-0.00503616 
-0.00152596 
1.33476e-05 
-0.00259106 
-0.0178546 
-0.0150645 
-0.0136597 
-0.0137705 
-0.00521374 
-0.0203578 
-0.0174995 
-0.00982359 
-0.000713866 
-0.00667215 
-0.0105541 
-0.00895211 
0.00130067 
-0.00735857 
-0.00673782 
-0.00146131 
-0.00470977 
0.00270911 
0.000998411 
-0.00677313 
-0.0208713 
-0.0103035 
-0.00948097 
-0.0136384 
-0.00969153 
-0.0213283 
-0.0111536 
-0.00331335 
-3.85457e-05 
4.70584e-05 
0.000185399 
0.000346922 
-5.96334e-05 
7.14902e-05 
0.000339097 
0.000396136 
6.02429e-06 
3.27925e-05 
0.000223054 
0.000327441 
0.000401777 
0.000356498 
0.000303462 
0.000209508 
0.000534851 
0.00048113 
0.000341226 
0.000339538 
0.000495323 
0.000511828 
0.000483821 
0.000395375 
0.000117943 
0.000143708 
0.000188632 
0.00183912 
0.0038107 
0.000445788 
-0.00248004 
-0.00293978 
-0.006998 
-0.00842663 
-0.00698076 
-0.0152758 
-0.0189506 
-0.0144185 
-0.00326957 
-0.0056365 
-0.0096413 
-0.0141292 
-0.00487226 
-0.00449387 
-0.00232304 
-0.00127435 
-0.0152083 
-0.00653911 
-0.00355912 
-0.00162158 
-0.0128348 
-0.0209584 
-0.00760835 
-0.00702379 
0.000391944 
0.000395965 
0.000409686 
0.000400098 
0.000526404 
0.000469487 
0.000550422 
0.000546546 
0.000410431 
0.000444987 
0.000355459 
0.00014538 
0.000258678 
0.000138858 
-3.86255e-06 
-0.000108563 
0.000263044 
0.000157215 
-3.45203e-05 
-7.67542e-05 
0.000231009 
0.000166522 
4.97061e-05 
8.89675e-05 
9.05775e-05 
0.000130708 
0.00012503 
0.000112594 
-0.0169051 
-0.0116905 
-0.00837171 
-0.00831689 
-0.00968587 
-0.0204757 
-0.0130456 
-0.00256545 
-0.0254514 
-0.0168985 
-0.00714922 
-0.00586246 
0.000266714 
-0.0075842 
-0.0054031 
-0.000786682 
0.000405182 
0.000139945 
0.00188533 
0.00322141 
0.000500189 
0.00302928 
0.00287622 
-9.72197e-05 
-0.00331447 
-0.000878386 
-0.000120334 
-0.0117384 
-0.000102164 
-0.00422148 
-0.00974025 
-0.0158944 
0.000119229 
8.49975e-05 
3.02832e-05 
6.44038e-05 
1.62899e-05 
-1.71721e-05 
9.6677e-05 
-2.51831e-05 
3.85729e-05 
-1.21844e-05 
3.01201e-06 
1.65436e-05 
5.9566e-05 
1.90066e-05 
-3.91367e-06 
3.70359e-05 
0.000154591 
0.000124266 
9.42558e-05 
0.000168326 
6.96947e-05 
-0.00229632 
-0.0026528 
-0.0013102 
0.000724373 
0.00194236 
-0.00216186 
-0.00245205 
-0.000801865 
0.000262526 
0.00443579 
-0.00083674 
-0.00429087 
0.00239326 
0.00212736 
-0.00269368 
-0.00770204 
-0.00262373 
0.000994992 
-0.00432227 
-0.0132729 
-0.00897381 
-0.00534835 
-0.00677918 
-0.0290373 
ITEM: TIMESTEP
5000000
ITEM: NUMBER OF ATOMS
896
ITEM: BOX BOUNDS pp pp ff
-1.7153631884999999e+01 1.8003017117999999e+01
-1.7855467918999999e+01 1.7553981017000002e+01
-3.4618715923000003e+01 3.4618715923000003e+01
ITEM: ATOMS q 
-0.000255484 
-1.35772e-05 
-1.83418e-05 
-2.67546e-05 
-0.000494583 
-0.000138591 
7.5303e-05 
0.000131856 
-0.000377076 
-0.000251335 
0.00016146 
0.000117461 
-0.000121519 
9.66567e-05 
-3.64514e-05 
7.06949e-06 
8.64882e-05 
0.000118408 
-4.82281e-05 
-3.34389e-05 
7.04841e-05 
1.49976e-05 
-2.99112e-05 
-8.73435e-05 
-0.000113565 
-0.000127448 
-2.98802e-05 
-7.08437e-05 
-0.00595132 
0.00231265 
-0.000846591 
0.00430545 
-0.0448616 
0.000987315 
0.00578113 
0.00473405 
-0.0253326 
-0.0140266 
0.00542129 
0.00267937 
-0.00763127 
-0.00189186 
-0.00162629 
-0.00661809 
-0.00457288 
0.00327475 
-0.00691362 
-0.0122537 
0.00328931 
0.00357209 
0.00073835 
-0.00266814 
0.00683367 
-0.000118309 
6.00233e-05 
-1.34041e-05 
-6.74479e-05 
-1.97569e-06 
-7.48838e-06 
0.000122932 
-9.92959e-06 
-1.41944e-05 
8.75781e-05 
0.000153278 
9.07494e-05 
0.000146475 
0.00027575 
2.92444e-05 
-8.90067e-06 
3.00494e-07 
-3.35929e-06 
1.19443e-05 
8.06371e-05 
0.000125275 
3.52698e-05 
8.88183e-05 
0.000180467 
0.000383523 
0.000274307 
0.000252478 
0.000256418 
-0.00868172 
-0.00182679 
-0.000531755 
-0.000915166 
-0.000217495 
-0.00056571 
-0.000457505 
0.00146755 
-0.00107188 
-0.0014767 
-0.00427798 
-0.00393038 
-0.00649229 
-0.0166269 
-0.00259721 
0.00105616 
0.00333462 
-0.00305728 
-0.00217544 
-0.000569546 
-0.00375254 
-0.0109821 
-0.00619173 
-0.00526576 
0.000149567 
9.68609e-05 
1.23437e-05 
4.28655e-05 
4.55616e-05 
0.000105048 
4.82431e-05 
4.38502e-05 
-0.000145681 
-7.87311e-05 
-2.56981e-05 
8.91783e-06 
-6.19178e-05 
1.89196e-05 
6.64998e-05 
5.99175e-06 
7.0478e-05 
0.000153831 
9.268e-05 
9.97144e-05 
0.000143959 
0.000229192 
0.000158071 
0.000175405 
0.000266762 
0.000323474 
0.000209634 
0.000303088 
-0.00562052 
-0.00177274 
0.00649567 
0.000375823 
0.00327642 
-0.0035458 
-0.004952 
-0.000339468 
-0.00129917 
-0.00316354 
-0.00197065 
0.00506436 
-0.000106343 
-0.0012443 
-0.00257781 
0.000634466 
-0.0023718 
-0.00124133 
0.00254431 
-0.0108671 
-0.00201274 
-0.00246288 
-0.00359621 
-0.012823 
-0.00754853 
-0.00807778 
-0.0069744 
-0.00457915 
1.14895e-05 
0.000146862 
0.000204513 
0.0001593 
0.000232995 
0.000299549 
0.000245918 
0.000288472 
0.000341778 
0.000252253 
0.000186193 
0.000226797 
0.000200145 
0.000177083 
0.000179463 
0.000316281 
0.000226198 
0.000185096 
0.000208012 
0.000260187 
0.000191538 
0.000193835 
0.000215769 
0.000285173 
0.000168507 
0.000139499 
0.000192946 
0.000231209 
0.000203919 
-0.00829273 
-0.00599865 
-0.00367215 
-0.00552486 
-0.0043274 
-0.00842299 
-0.00796601 
-0.00678418 
-0.00450554 
-0.00958627 
-0.0136992 
-0.00723121 
-0.00413945 
-0.00321319 
-0.00285056 
-0.00221008 
-0.000576464 
-0.00238702 
-0.00157252 
-0.000658952 
-0.00418383 
-0.00266429 
-0.00167887 
-0.00972637 
-0.00183095 
-0.00258199 
-0.00418247 
0.000257124 
0.000293199 
0.000511084 
0.00060671 
0.000290499 
0.000331014 
0.000527695 
0.00051638 
0.000343694 
0.000319471 
0.000340396 
0.000312163 
0.000451951 
0.000407664 
0.000600775 
0.000593664 
0.000446569 
0.000211817 
0.000540433 
0.000501807 
0.000246635 
0.000110893 
0.000258149 
0.000300641 
0.000155105 
0.000170602 
0.000292839 
0.000322332 
8.02682e-05 
4.51654e-05 
0.000209154 
-0.00627915 
-0.00566566 
-0.00861782 
-0.00927832 
-0.0146241 
-0.0136257 
-0.0193355 
-0.00561856 
-0.00897241 
-0.0291248 
-0.0210342 
-0.00639556 
-0.00556569 
-0.00506877 
-0.00245007 
-0.00564652 
-0.0031922 
-0.00947324 
-0.0101956 
-0.00450375 
0.000837123 
-0.00881681 
-0.0048817 
0.00303941 
0.00419958 
-0.000926253 
0.000578169 
0.00234278 
-0.00215407 
-0.00287627 
-0.00572445 
0.00046461 
0.000419925 
0.000332031 
0.000405661 
0.000437524 
0.000363594 
0.000439284 
0.000413996 
0.000409394 
0.000426475 
0.000349771 
0.000452014 
0.00049693 
0.00054008 
0.0003692 
0.000504054 
0.000348462 
0.000391941 
0.000500768 
0.000360049 
0.00032617 
0.000302115 
0.000245144 
0.000173887 
0.000527426 
0.000384633 
0.000283461 
0.000246912 
0.000587551 
0.00028986 
0.000162785 
0.00016546 
-0.0185979 
-0.00873158 
-0.0172647 
-0.00435954 
-0.0240972 
-0.00930936 
-0.0081465 
-0.00735796 
-0.00595666 
-0.00679316 
-0.0180443 
-0.00908358 
-0.00174072 
-0.00532853 
-0.00871822 
-0.00750113 
-0.00950361 
-0.0170284 
-0.0135434 
-0.02569 
-0.0118468 
-0.0181656 
-0.0108641 
-0.00355825 
-0.00419352 
-0.000936696 
0.000355736 
0.000581801 
-0.0138909 
-0.0067258 
-0.00313769 
-0.00234865 
0.000176105 
3.60974e-05 
9.77418e-05 
8.09679e-05 
0.000208896 
0.000253164 
0.000132895 
0.00022574 
0.0002463 
0.000441512 
0.000368539 
7.09876e-05 
-2.9482e-05 
-8.02533e-05 
-0.000199974 
0.000283517 
0.000164345 
-1.39847e-05 
-0.000127432 
0.00023132 
0.00023991 
0.000130572 
0.000115608 
0.000167575 
0.000222425 
6.76887e-05 
0.00621779 
0.0084439 
0.00166548 
-0.00335905 
-0.012288 
-0.0184455 
-0.0122003 
-0.00498137 
-0.00631208 
-0.00843766 
-0.00238424 
-0.00735179 
-0.000710647 
0.00120093 
0.00489673 
0.00340158 
0.00201054 
-0.000600012 
-0.000551303 
0.0032836 
-0.00943776 
-0.0094192 
-0.00241876 
-0.000457511 
-0.0157481 
-0.00865708 
-0.0112084 
0.000316377 
0.000472093 
0.000354795 
0.000220223 
0.00019609 
0.000238484 
0.000352161 
0.000207442 
0.000363264 
0.000422997 
0.000113917 
0.000172335 
0.000153451 
8.53698e-05 
8.24335e-05 
0.000130078 
0.000399167 
0.000227629 
0.000179248 
0.000263627 
0.000497931 
0.000440253 
0.000301223 
0.000332203 
-0.025882 
0.000931601 
-0.00307064 
-0.00897465 
-0.00120731 
-0.000519303 
-0.00582384 
-0.00416081 
-0.00615785 
-0.0125238 
-0.00100445 
-0.0125636 
-0.0206319 
-0.0122032 
0.000850931 
-0.0148617 
-0.000188796 
-0.000393513 
-0.00152319 
-0.00174991 
-0.00543304 
-0.00426635 
-0.00587403 
-0.00564217 
-0.00904538 
-0.0052901 
-0.00512726 
-0.00228009 
0.000133646 
8.33387e-05 
0.000198449 
0.000184715 
9.668e-05 
7.10065e-05 
6.85613e-05 
0.000165668 
-0.00011194 
5.82965e-05 
0.000171236 
0.00024919 
-0.000246097 
-0.000166003 
0.000129163 
0.000176877 
0.000245723 
0.000337662 
0.000267638 
0.000200803 
0.000275217 
0.000233677 
0.000246614 
0.000352254 
0.00039834 
0.000416129 
0.00048698 
0.000512228 
0.000284791 
0.000416381 