ITEM: TIMESTEP
2000000
ITEM: NUMBER OF ATOMS
896
ITEM: BOX BOUNDS pp pp ff
-1.7153631884999999e+01 1.8003017117999999e+01
-1.7855467918999999e+01 1.7553981017000002e+01
-3.4618715923000003e+01 3.4618715923000003e+01
ITEM: ATOMS q 
0 
0 
0 
0 
0 
0 
0 
0 
0 
0 
0 
0 
0 
0 
0 
0 
0 
0 
0 
0 
0 
0 
0 
0 
0 
0 
0 
0 
0 
0 
0 
0 
0 
0 
0 
0 
0 
0 
0 
0 
0 
0 
0 
0 
0 
0 
0 
0 
0 
0 
0 
0 
0 
0 
0 
0 
0 
0 
0 
0 
0 
0 
0 
0 
0 
0 
0 
0 
0 
0 
0 
0 
0 
0 
0 
0 
0 
0 
0 
0 
0 
0 
0 
0 
0 
0 
0 
0 
0 
0 
0 
0 
0 
0 
0 
0 
0 
0 
0 
0 
0 
0 
0 
0 
0 
0 
0 
0 
0 
0 
0 
0 
0 
0 
0 
0 
0 
0 
0 
0 
0 
0 
0 
0 
0 
0 
0 
0 
0 
0 
0 
0 
0 
0 
0 
0 
0 
0 
0 
0 
0 
0 
0 
0 
0 
0 
0 
0 
0 
0 
0 
0 
0 
0 
0 
0 
0 
0 
0 
0 
0 
0 
0 
0 
0 
0 
0 
0 
0 
0 
0 
0 
0 
0 
0 
0 
0 
0 
0 
0 
0 
0 
0 
0 
0 
0 
0 
0 
0 
0 
0 
0 
0 
0 
0 
0 
0 
0 
0 
0 
0 
0 
0 
0 
0 
0 
0 
0 
0 
0 
0 
0 
0 
0 
0 
0 
0 
0 
0 
0 
0 
0 
0 
0 
0 
0 
0 
0 
0 
0 
0 
0 
0 
0 
0 
0 
0 
0 
0 
0 
0 
0 
0 
0 
0 
0 
0 
0 
0 
0 
0 
0 
0 
0 
0 
0 
0 
0 
0 
0 
0 
0 
0 
0 
0 
0 
0 
0 
0 
0 
0 
0 
0 
0 
0 
0 
0 
0 
0 
0 
0 
0 
0 
0 
0 
0 
0 
0 
0 
0 
0 
0 
0 
0 
0 
0 
0 
0 
0 
0 
0 
0 
0 
0 
0 
0 
0 
0 
0 
0 
0 
0 
0 
0 
0 
0 
0 
0 
0 
0 
0 
0 
0 
0 
0 
0 
0 
0 
0 
0 
0 
0 
0 
0 
0 
0 
0 
0 
0 
0 
0 
0 
0 
0 
0 
0 
0 
0 
0 
0 
0 
0 
0 
0 
0 
0 
0 
0 
0 
0 
0 
0 
0 
0 
0 
0 
0 
0 
0 
0 
0 
0 
0 
0 
0 
0 
0 
0 
0 
0 
0 
0 
0 
0 
0 
0 
0 
0 
0 
0 
0 
0 
0 
0 
0 
0 
0 
0 
0 
0 
0 
0 
0 
0 
0 
0 
0 
0 
0 
0 
0 
0 
0 
0 
0 
0 
0 
0 
0 
0 
0 
0 
0 
0 
0 
0 
0 
0 
0 
0 
0 
0 
0 
0 
0 
0 
0 
0 
0 
0 
0 
0 
0 
0 
0 
0 
0 
0 
0 
0 
0 
0 
0 
0 
0 
0 
0 
0 
0 
0 
0 
0 
0 
0 
0 
0 
0 
0 
0 
0 
0 
0 
0 
0 
0 
0 
0 
0 
0 
0 
0 
0 
0 
0 
0 
0 
0 
0 
0 
0 
0 
0 
0 
0 
0 
0 
0 
0 
0 
0 
0 
0 
0 
0 
0 
0 
0 
0 
0 
0 
0 
0 
0 
0 
0 
0 
0 
0 
0 
0 
0 
0 
0 
0 
0 
0 
0 
0 
0 
0 
0 
0 
0 
0 
0 
0 
0 
0 
0 
0 
0 
0 
0 
0 
0 
0 
0 
0 
0 
0 
0 
0 
0 
0 
0 
0 
0 
0 
0 
0 
0 
0 
0 
0 
0 
0 
0 
0 
0 
0 
0 
0 
0 
0 
0 
0 
0 
0 
0 
0 
0 
0 
0 
0 
0 
0 
0 
0 
0 
0 
0 
0 
0 
0 
0 
0 
0 
0 
0 
0 
0 
0 
0 
0 
0 
0 
0 
0 
0 
0 
0 
0 
0 
0 
0 
0 
0 
0 
0 
0 
0 
0 
0 
0 
0 
0 
0 
0 
0 
0 
0 
0 
0 
0 
0 
0 
0 
0 
0 
0 
0 
0 
0 
0 
0 
0 
0 
0 
0 
0 
0 
0 
0 
0 
0 
0 
0 
0 
0 
0 
0 
0 
0 
0 
0 
0 
0 
0 
0 
0 
0 
0 
0 
0 
0 
0 
0 
0 
0 
0 
0 
0 
0 
0 
0 
0 
0 
0 
0 
0 
0 
0 
0 
0 
0 
0 
0 
0 
0 
0 
0 
0 
0 
0 
0 
0 
0 
0 
0 
0 
0 
0 
0 
0 
0 
0 
0 
0 
0 
0 
0 
0 
0 
0 
0 
0 
0 
0 
0 
0 
0 
0 
0 
0 
0 
0 
0 
0 
0 
0 
0 
0 
0 
0 
0 
0 
0 
0 
0 
0 
0 
0 
0 
0 
0 
0 
0 
0 
0 
0 
0 
0 
0 
0 
0 
0 
0 
0 
0 
0 
0 
0 
0 
0 
0 
0 
0 
0 
0 
0 
0 
0 
0 
0 
0 
0 
0 
0 
0 
0 
0 
0 
0 
0 
0 
0 
0 
0 
0 
0 
0 
0 
0 
0 
0 
0 
0 
0 
0 
0 
0 
0 
0 
0 
0 
0 
0 
0 
0 
0 
0 
0 
0 
0 
0 
0 
0 
0 
0 
0 
0 
0 
0 
0 
0 
0 
0 
0 
0 
0 
0 
0 
0 
0 
0 
0 
0 
0 
0 
0 
0 
0 
0 
0 
0 
0 
0 
0 
0 
0 
0 
0 
0 
0 
0 
0 
0 
0 
0 
0 
0 
0 
0 
0 
0 
0 
0 
0 
0 
0 
0 
0 
0 
0 
0 
0 
0 
0 
0 
0 
0 
0 
0 
0 
0 
0 
ITEM: TIMESTEP
2200000
ITEM: NUMBER OF ATOMS
896
ITEM: BOX BOUNDS pp pp ff
-1.7153631884999999e+01 1.8003017117999999e+01
-1.7855467918999999e+01 1.7553981017000002e+01
-3.4618715923000003e+01 3.4618715923000003e+01
ITEM: ATOMS q 
-9.99505e-05 
-0.000216681 
0.000184832 
0.000324455 
5.61041e-05 
3.96889e-05 
0.000204025 
0.000210694 
-2.33671e-05 
2.92909e-05 
6.28427e-05 
-3.16504e-05 
-0.000154278 
-0.00013625 
0.000385081 
0.00025817 
4.0425e-05 
-4.09667e-05 
0.00019725 
0.00022899 
1.8954e-05 
-6.94313e-05 
-3.74181e-05 
2.49184e-05 
-5.87728e-05 
-0.000121264 
-0.000165784 
-0.000180697 
-0.00583846 
-0.0134758 
-0.0088771 
-0.0228822 
1.67718e-05 
-0.00435395 
-0.0155658 
-0.00454034 
0.00226202 
-0.00536074 
-0.00678467 
-0.000415576 
-0.000838198 
0.00224929 
-0.00496548 
0.00105195 
0.00618732 
-0.000559926 
0.000164506 
0.0056741 
0.00182827 
0.00153544 
-0.000160356 
0.00166255 
0.00157133 
-0.000253962 
-0.000192073 
-0.000640464 
-0.000301172 
-0.000249011 
-0.00023461 
-0.000683663 
-0.000613474 
-0.000284824 
-0.000234037 
-0.000270531 
-0.000312251 
-0.000274403 
-0.000233299 
-0.000235238 
-0.000249337 
-0.000249279 
-0.000276953 
-0.000283087 
-0.000218683 
-0.000216724 
-0.000224163 
-0.00017526 
2.20926e-05 
-0.000171285 
-0.000164996 
2.80477e-05 
0.000271739 
-0.00157562 
0.00567398 
-0.00929277 
0.00657976 
0.00602327 
0.004072 
-0.0145944 
-0.00243361 
0.00525998 
0.0045904 
0.0059 
0.0105797 
0.00432676 
0.00497571 
0.00609217 
0.00465267 
0.00568363 
0.00602438 
0.00282743 
0.00346411 
0.00496764 
0.00396445 
0.00231899 
-0.0112215 
-0.000131721 
-0.00011036 
-7.69588e-05 
-4.29873e-05 
-8.693e-05 
-8.48877e-05 
-3.09626e-05 
3.42734e-05 
-9.13705e-05 
-4.5096e-05 
3.34216e-05 
7.42148e-05 
-9.38499e-05 
4.54163e-06 
-5.44971e-05 
-0.000117003 
-0.000165239 
-0.000176107 
6.61293e-05 
-1.21484e-05 
-8.90731e-05 
-1.87233e-05 
0.000160811 
0.000148104 
0.00015807 
0.000253566 
0.000184139 
0.000276833 
0.00702918 
0.000618114 
0.000864433 
-0.00162922 
-0.00139567 
-0.00203013 
0.000918178 
-0.000725215 
-0.000560455 
-0.000391586 
-0.00316943 
-0.000202907 
-0.00366298 
-0.00435976 
-0.00479348 
-0.00140589 
-0.00416243 
0.000588104 
-7.09899e-05 
0.00228668 
-0.0032938 
0.000823245 
0.00864855 
-0.00675855 
-0.00730273 
-0.00272301 
-0.00633171 
-0.012766 
-0.000197988 
2.74282e-05 
-0.00012284 
-0.000121362 
5.67728e-06 
8.66883e-05 
0.0002013 
0.000119927 
0.000211259 
0.000250739 
0.000467337 
0.000370837 
0.000371211 
0.000242743 
0.000119091 
0.000272702 
0.00010492 
0.00013143 
0.000188762 
0.000102 
0.000114506 
9.94386e-05 
6.33875e-05 
-5.44998e-06 
8.12634e-05 
7.82148e-05 
4.91828e-06 
-2.29131e-05 
0.00693364 
0.00656721 
-0.00887685 
-0.0178825 
0.00197534 
-0.00199308 
-0.00459431 
-0.00103328 
-0.00140027 
-0.00207266 
-0.014641 
-0.00807769 
-0.00199699 
-0.00149166 
-0.0180274 
-0.0151339 
-0.0017817 
-0.00124137 
-0.00359356 
-0.00477143 
-0.00709266 
-0.00446754 
-0.000380454 
-0.00415087 
-0.000673654 
-0.00402882 
-0.000798513 
-0.000740841 
-0.00022392 
-0.000226255 
-0.000215512 
-9.36603e-05 
-5.09305e-05 
-0.000140844 
-3.00797e-05 
0.00017329 
0.000284008 
0.000155158 
0.000257022 
0.000371661 
0.000326896 
0.000327197 
-5.82391e-05 
-0.000228322 
-0.000263181 
-0.000117295 
0.00023981 
5.78315e-05 
1.74432e-05 
0.00017022 
0.000435482 
0.000353388 
0.000313266 
0.000478492 
0.000417263 
0.000541688 
-4.83731e-05 
0.000332369 
0.000476033 
0.00841086 
0.00502829 
-0.00895446 
0.00456647 
0.0037812 
0.00146907 
0.000470252 
0.000257299 
-0.000305674 
-0.00336457 
-0.00939759 
-0.00933703 
-0.00477532 
-0.0144978 
-0.0150396 
-0.00918116 
-0.00503936 
0.00191581 
0.00662297 
0.00861845 
0.00218991 
-0.00344223 
0.00239789 
-0.000149285 
-0.00188071 
-0.0109338 
-0.00661884 
-0.00356506 
-0.00885628 
-0.0172901 
-0.0202977 
0.000307225 
0.000229204 
4.3388e-05 
0.000160334 
0.000113442 
-1.27008e-05 
-6.50621e-05 
-4.95979e-05 
-7.23092e-05 
-7.8945e-05 
-8.51153e-05 
-0.000109919 
-0.000106272 
-0.000147877 
0.000245991 
0.000568755 
2.35942e-05 
0.000172991 
0.000367052 
0.000322682 
-4.16275e-05 
-1.50881e-07 
8.19645e-05 
8.12551e-05 
-9.00032e-05 
-1.51519e-05 
3.48897e-05 
4.30413e-05 
0.00059903 
0.000464333 
0.000136504 
3.67913e-05 
-0.0108007 
0.00111032 
0.00328906 
0.00034583 
-0.00881403 
-0.00085068 
0.00134439 
-0.002116 
-0.000148145 
-0.000265557 
0.000952431 
0.00249072 
0.000910001 
-0.00046703 
0.00437995 
-3.2975e-05 
-0.0011944 
-3.15817e-05 
-0.00806766 
-0.0174089 
-0.000257025 
-0.00557703 
-0.0204981 
-0.0205595 
-0.000623485 
0.00225207 
-0.00114094 
-0.00257077 
-0.00212608 
-0.00310406 
-0.00259984 
-0.00176016 
-0.000153437 
-5.96022e-05 
0.000184513 
0.000259815 
0.000411144 
0.000514008 
0.000489095 
0.000567551 
0.000408326 
0.000515026 
0.000368112 
0.000241666 
0.000131178 
0.000163949 
0.000165181 
0.000380651 
0.000303452 
0.000202845 
0.000131433 
0.00028565 
0.000261345 
0.000111067 
0.000103562 
0.000125751 
4.78087e-05 
0.00193567 
0.0108853 
-0.00279172 
-0.00639484 
-0.0280492 
-0.0169739 
-0.0124061 
-0.0117107 
-0.00333983 
-0.020639 
-0.0138133 
-0.00776656 
-0.00426595 
-0.00408788 
-0.00771859 
-0.00974393 
-0.00890846 
-0.00678033 
-0.00453037 
-0.00520989 
-0.00279239 
-0.000751607 
-5.72384e-06 
0.0012624 
0.00201298 
-0.0145488 
0.00319591 
-0.00170786 
0.000323522 
0.000500748 
0.000394816 
0.000290578 
0.000279356 
0.000231888 
0.000100111 
7.62013e-05 
6.76358e-05 
-2.50663e-05 
0.000188489 
-4.29228e-05 
0.000160991 
0.000119134 
5.33846e-06 
-0.000190353 
1.41996e-05 
1.36283e-05 
-9.68673e-05 
-0.000288592 
-5.61285e-05 
-6.34499e-05 
-0.000140173 
-0.000273197 
-0.0095496 
-0.00305041 
-0.0122599 
-0.0103175 
-0.0096087 
-0.00554577 
-0.0031633 
-0.00300364 
-0.00305214 
-0.00152871 
-0.00230527 
-0.00304685 
-0.00338453 
-0.00285195 
-0.000821113 
-0.00466324 
-0.0020836 
-0.000756426 
0.00172131 
-0.0126544 
0.00375153 
0.00587331 
-0.00102169 
-0.0122422 
-0.00052315 
0.00301167 
0.0055809 
0.00486503 
-0.000156416 
-7.66096e-05 
-0.000146352 
-4.02722e-05 
-0.000217804 
-2.45113e-05 
0.000116595 
0.000169141 
-0.000299405 
-8.85717e-05 
0.000132927 
8.3502e-05 
-0.000190953 
-7.4944e-05 
0.000109851 
0.000288603 
3.391e-05 
-9.07271e-07 
0.000218758 
0.00040723 
0.00012645 
0.000182175 
0.000353369 
0.000404144 
8.41042e-05 
0.000141807 
0.000295035 
0.0003481 
0.000455453 
0.000313328 
0.000415819 
0.0005269 
0.00191435 
0.00413377 
0.0042558 
0.000798215 
-0.0339221 
-0.00268867 
-0.000906621 
-0.00228515 
-0.00990997 
-0.00592727 
0.00444716 
0.00632686 
-0.010043 
-0.00398357 
0.00116917 
-0.00480135 
-0.0065171 
-0.00501425 
-0.0124029 
-0.00538823 
-0.0120854 
-0.0193311 
-0.00225441 
-0.0082493 
-0.00958186 
-0.0211662 
-0.00728784 
-0.0106104 
-4.76694e-05 
3.316e-05 
0.000300914 
0.000421144 
-7.01972e-05 
4.68007e-05 
0.000227753 
0.000240184 
-0.000241806 
-1.60556e-05 
0.000138451 
0.000191745 
0.000670965 
0.000718855 
0.00074181 
0.000575257 
0.000386584 
0.000608764 
0.000565664 
0.000356393 
0.000218339 
0.000314313 
0.000353021 
0.000132504 
-0.00596457 
-0.00739036 
-0.0160999 
-0.0273384 
-0.00380504 
-0.00260445 
-0.00813536 
-0.00340614 
-0.0280056 
-0.00330174 
0.000752172 
-0.00548068 
-0.0124634 
-0.033429 
-0.0122822 
-0.0218156 
-0.0126148 
-0.00697005 
-0.00368506 
-0.0138504 
-0.00541093 
0.000487278 
0.000453258 
0.000240374 
2.87843e-05 
0.000346464 
0.000309633 
5.47901e-05 
-1.8682e-05 
0.000397391 
0.000270087 
0.000120101 
0.000128722 
0.000344924 
0.000302611 
0.000194592 
2.99198e-05 
-6.22189e-05 
-2.883e-06 
-1.14345e-05 
-1.1574e-05 
-6.57658e-05 
-6.83062e-05 
-1.03505e-05 
-6.93787e-06 
5.15111e-05 
-1.87223e-06 
4.82358e-06 
5.18663e-05 
1.69588e-06 
7.10373e-05 
8.85272e-05 
0.00014569 
-0.0230729 
-0.00529709 
-0.0135322 
-0.00725978 
-0.00162246 
0.000397357 
0.00106586 
0.00275509 
-0.000114818 
0.00287629 
0.00433883 
0.00263201 
-0.0118514 
-0.000215199 
0.00183749 
-0.00327286 
-0.00193023 
-0.00706601 
-0.00397119 
0.0016719 
0.000608595 
-0.0014954 
-0.00148341 
-0.000176119 
-0.00312145 
-0.0036523 
-0.00207551 
-0.00122584 
-0.000609444 
-0.00218292 
-0.00491349 
-0.00311763 
0.000243351 
0.000183166 
-3.32344e-05 
-0.000154103 
0.000116617 
2.10539e-05 
-0.000166574 
-0.000225576 
-3.65475e-05 
-4.32636e-05 
-0.000203749 
-0.000187573 
-0.000142544 
-2.82775e-05 
0.000100254 
0.000110649 
-0.000210049 
-0.000136423 
-1.6359e-05 
-6.74762e-05 
-0.000204733 
-0.000175951 
-0.000137184 
-0.000186138 
-0.00130739 
-0.00507608 
0.00155414 
0.00307445 
0.00284068 
0.00451828 
0.00438972 
0.00337568 
0.00561902 
0.00489502 
0.00348171 
0.00501108 
0.0056249 
0.00861282 
0.0044359 
-0.000237804 
-0.00255181 
-0.00912067 
-0.000424203 
-0.00320467 
-0.00144437 
0.00195726 
0.0020374 
0.00299151 
-3.34781e-05 
-0.00010461 
-0.000180376 
-0.000214042 
-3.20655e-05 
-6.4348e-05 
-0.000162639 
-0.000145166 
4.27885e-05 
-2.0284e-05 
-3.55886e-05 
-6.23284e-06 
0.000236622 
0.000156342 
0.000124147 
0.000180824 
-0.000207682 
-9.48124e-05 
6.8328e-06 
-2.88003e-05 
-0.000167567 
-0.000155726 
-6.98351e-05 
-9.13989e-05 
-5.32891e-05 
-0.000100641 
-9.78326e-05 
-6.94284e-05 
5.90216e-05 
-2.59316e-05 
-4.21606e-05 
-3.63404e-05 
-6.90807e-05 
-0.000131981 
-9.23324e-05 
9.52083e-06 
-0.0031675 
0.00152822 
0.00224392 
-0.0091234 
0.0026253 
0.00401609 
0.00667686 
0.00910446 
0.000894982 
0.00379899 
0.00779357 
0.00376345 
-0.00405579 
-0.00188739 
0.0010563 
-4.19211e-05 
-0.00493641 
-0.00333942 
0.00025611 
-0.00068544 
-0.00360051 
-0.00390623 
-0.0019532 
0.00017029 
0.00155116 
-0.00198396 
-4.24762e-05 
0.00109012 
0.000589955 
0.00138983 
0.000697866 
0.000315094 
-0.000537493 
-0.000345986 
-4.35602e-05 
-0.00123918 
0.000263115 
0.000338906 
0.000332872 
0.00020427 
-7.05915e-05 
0.000140364 
0.000124169 
-0.000126323 
-0.000219712 
-0.000164932 
-0.000207985 
-0.000268539 
2.99375e-05 
2.3799e-05 
-5.51697e-05 
-0.000142113 
-0.000230207 
-0.000151544 
-0.000239465 
-0.000358665 
-0.000349837 
-0.000352163 
-0.000395767 
-0.000374638 
-9.68409e-05 
-0.00033762 
-0.000326627 
-0.00619374 
0.0031462 
0.0030245 
-0.0199534 
-0.0144497 
-0.00531956 
-0.00323382 
0.0031362 
-0.00595759 
-0.000950155 
0.00661747 
0.00547875 
0.00468125 
0.00680981 
0.00676856 
0.000751024 
0.00038804 
0.000634858 
0.000783691 
0.00574776 
0.0041528 
0.00734119 
0.00743096 
0.0124465 
0.00990542 
0.0110468 
0.00887839 
-4.09947e-05 
-9.13168e-05 
-0.000167593 
-0.000147726 
-0.000200272 
-0.000249572 
-0.000166155 
-0.000244339 
-0.000187088 
-1.70658e-05 
-4.02182e-05 
7.8483e-05 
-0.000193752 
-0.000141409 
-0.000175082 
-0.000249465 
-0.000208068 
-0.000183386 
-0.000136632 
-0.000147831 
-0.000195336 
-0.000181683 
-0.00010491 
-0.00021654 
-1.18213e-05 
-0.000144496 
-0.000179497 
-0.000204475 
0.00360255 
0.00185177 
0.00311839 
0.0055818 
0.00396803 
0.0030878 
0.004077 
0.00257043 
0.00187788 
0.00902684 
0.00660395 
0.00330345 
-0.00886401 
0.000561657 
0.00269717 
-0.00093641 
0.00347148 
0.0037975 
0.0054627 
0.0059998 
3.94288e-05 
0.000631873 
0.000109383 
-0.00988926 
0.00229208 
9.06874e-05 
-0.00243139 
-0.007225 
0.00226542 
0.00810577 
0.00395365 
-0.00232678 
4.32474e-05 
0.000159577 
0.000144723 
-0.000162792 
-2.80715e-05 
-5.91526e-05 
-0.000320404 
-0.000187178 
-0.000109967 
0.000233137 
0.000134955 
3.50457e-05 
9.25654e-05 
9.90915e-05 
0.000233053 
0.000257202 
0.000117442 
5.2124e-05 
0.00010676 
0.000129949 
3.893e-05 
-0.00484786 
-0.0112599 
-0.00344998 
-0.00951358 
0.00605259 
0.00262377 
-0.00410334 
-0.0035186 
0.00554654 
0.00448755 
0.00247008 
-0.00267901 
-0.0172008 
0.00313023 
0.00437105 
0.000477735 
-0.00675152 
-0.0143154 
-5.33293e-05 
-0.000262515 
-0.00940304 
-0.00202055 
-0.00178213 
-0.0127652 
ITEM: TIMESTEP
2400000
ITEM: NUMBER OF ATOMS
896
ITEM: BOX BOUNDS pp pp ff
-1.7153631884999999e+01 1.8003017117999999e+01
-1.7855467918999999e+01 1.7553981017000002e+01
-3.4618715923000003e+01 3.4618715923000003e+01
ITEM: ATOMS q 
-8.48483e-05 
-6.44524e-05 
-8.11481e-05 
-7.74131e-05 
-0.000100318 
-6.50009e-05 
-8.278e-05 
-0.000126767 
-0.000123291 
-0.000102476 
-0.000134201 
-8.03248e-05 
-9.22877e-05 
-3.23009e-06 
-9.18633e-05 
-8.63709e-05 
-6.84686e-05 
-0.000101422 
-0.000143523 
-0.000114988 
-0.00012088 
-7.26816e-05 
-7.09518e-05 
-0.000130998 
-6.69252e-05 
5.03465e-05 
2.59653e-05 
6.30956e-05 
0.00130068 
-0.000324105 
-0.000769997 
0.0016095 
0.000137673 
-0.000695717 
0.00190417 
0.00166397 
0.000879211 
0.00479675 
0.00388835 
0.0012295 
-0.00133487 
0.000144596 
0.000227121 
-0.00225673 
0.00117058 
0.0040931 
0.0028686 
0.00222088 
0.000923234 
0.00278271 
-0.00294605 
0.00114929 
-0.00219665 
-5.27324e-05 
0.000212113 
6.28681e-06 
4.4171e-05 
0.000284316 
0.000521898 
-5.18999e-05 
9.25059e-05 
0.000383329 
0.000359983 
-0.000142869 
9.71549e-06 
0.00014842 
0.000132141 
0.000226872 
0.000184598 
0.000693381 
0.000443548 
0.00031819 
0.000358091 
0.000409345 
0.000554999 
0.00039592 
0.00026653 
0.000167129 
0.000253119 
0.000240187 
0.000130762 
-0.00881993 
-0.00271007 
-0.00953941 
-0.00739827 
-0.0123542 
-0.0341917 
-0.00809368 
-0.00882384 
-0.0233813 
-0.0075481 
-0.00500868 
-0.00348366 
0.00113555 
-0.0019491 
-0.000788345 
-0.0135369 
-0.00368069 
-0.00447173 
-0.00669928 
-0.00846969 
-0.00302528 
-0.0109093 
-0.00482473 
-0.00267529 
-0.000118348 
-0.000138234 
-0.000159243 
-8.03241e-05 
-1.68028e-05 
-8.45061e-05 
-4.53916e-05 
6.87966e-05 
0.000186398 
0.000114336 
0.000145785 
0.000210978 
0.000320117 
0.000339783 
2.19079e-05 
-5.52369e-05 
1.54667e-05 
0.000150068 
0.000122653 
0.000125626 
0.000203881 
0.000160052 
0.00015577 
0.000126357 
9.42893e-05 
4.81057e-05 
0.000165733 
9.33301e-05 
0.00284964 
-5.07241e-05 
-0.00964217 
0.00464511 
0.006215 
0.00251936 
-0.00151251 
0.000965625 
0.0037239 
-0.00602608 
-0.00280135 
-0.00780531 
-0.00674526 
-0.00232479 
-0.00347703 
-0.00533232 
-0.00322265 
-0.0033234 
-0.00296548 
0.000174955 
-0.00380146 
-0.00975475 
-0.0103047 
-0.00342294 
-2.3758e-05 
-0.00123427 
-0.00295352 
0.00122901 
0.000316083 
0.000443348 
0.000349352 
0.000455506 
0.000597234 
0.000440837 
0.000228272 
0.000336082 
0.000329675 
0.000182722 
6.14625e-05 
0.000132954 
0.000115447 
3.31203e-05 
0.00029348 
7.7047e-05 
0.000284584 
0.000251804 
0.000114887 
2.36428e-05 
0.000120258 
0.000140324 
3.00166e-05 
-2.72012e-05 
2.48561e-05 
4.14958e-05 
1.6138e-05 
3.16617e-05 
-0.00462477 
-0.00589625 
-0.00523339 
-0.00192031 
-0.0153507 
-0.00624758 
-0.0127937 
-0.0298092 
-0.0121462 
-0.00509309 
-0.00767325 
-0.0057343 
-0.00427196 
-0.0028464 
0.000865641 
-0.00392525 
-0.00226404 
0.00105655 
-0.00321455 
-0.00340083 
-0.00322669 
-0.00404895 
-0.00208158 
-0.00153718 
0.00388012 
0.00173715 
-0.00225171 
-0.0017048 
0.000129486 
1.68523e-05 
-2.26266e-05 
-3.93676e-05 
0.000101779 
9.39285e-05 
-3.36856e-05 
-7.62332e-05 
4.64134e-06 
-1.22839e-06 
-5.6921e-05 
-9.31156e-05 
-3.09724e-05 
-8.69096e-05 
-6.36977e-05 
-2.45892e-05 
4.19623e-05 
5.4542e-05 
-8.83188e-05 
-5.8302e-05 
9.81982e-06 
-5.65549e-05 
-0.000126164 
-0.000106695 
-0.000148676 
-0.000193815 
-0.000175058 
-0.00020118 
5.97367e-05 
-1.76781e-05 
-0.000220501 
-0.0054827 
-0.0033189 
-0.00124897 
-0.00344929 
-0.00182311 
0.00114445 
0.00240379 
-0.000349455 
0.00260091 
0.00315436 
0.000990562 
-0.000794005 
0.00180368 
-4.65466e-05 
0.00111399 
0.00228047 
0.00166447 
-0.00128311 
-0.000716006 
-0.00341453 
-0.00408853 
0.00015425 
-0.00319851 
-0.00491653 
-0.003203 
0.00228945 
0.00454108 
0.00541226 
0.00587545 
0.00253627 
0.00503326 
1.33445e-06 
-0.000133968 
-7.84169e-05 
-7.0599e-05 
-0.000150734 
-0.000219285 
-0.00011637 
-0.000148906 
-0.000212666 
-0.000231081 
3.67386e-06 
-9.7912e-05 
-0.000160443 
-0.00013389 
-0.000189818 
-0.000214932 
-0.000253087 
-0.000237923 
-0.000240875 
-0.000216244 
-0.000266548 
-0.000267875 
-0.00023745 
-0.000215799 
-0.000191869 
-0.000244436 
-0.000231387 
-0.000163027 
-0.000204412 
-0.000163854 
-0.000178799 
-0.000122778 
-0.00259427 
0.00114685 
0.0037086 
-0.00125094 
0.000478227 
0.00296161 
0.00299696 
0.0018204 
0.00414773 
0.00419192 
0.00318518 
0.0050404 
0.0052699 
0.00594004 
-0.000536629 
0.00188334 
0.00525619 
0.00337093 
0.00332059 
0.000978042 
0.00459109 
0.00605317 
0.00370083 
-0.000153052 
0.00457254 
0.0042787 
0.00283937 
0.00384862 
0.00399377 
0.00473948 
0.004634 
-0.000770181 
7.13042e-05 
1.83686e-05 
8.12258e-06 
4.2536e-05 
2.86467e-05 
-3.62725e-06 
-0.000125591 
-8.59762e-05 
-0.000177387 
-0.000220446 
-0.000242288 
-2.26416e-05 
-1.73934e-05 
-6.92487e-05 
-0.000109448 
-2.24289e-05 
-3.77379e-05 
-8.08071e-05 
-9.88233e-05 
-0.000141617 
-7.15888e-05 
-6.27793e-05 
-2.28981e-05 
-0.000164643 
-4.98699e-05 
0.00127411 
0.00273416 
-0.00200485 
-0.000723324 
-0.00378961 
-0.00358193 
-0.00138366 
-0.00269498 
0.00562657 
0.000148497 
-0.000519507 
0.00314659 
0.0079275 
0.00547778 
0.00297692 
0.00128623 
-2.66899e-05 
0.00107121 
-0.000919227 
0.0025485 
0.00134386 
0.00036457 
0.00130969 
0.000330049 
0.00202886 
-0.00473001 
0.00202282 
-0.00742073 
-0.000221239 
-0.000179085 
-0.000169614 
-0.000132677 
-0.000143843 
-0.000121424 
-0.000152447 
-0.000159007 
-0.000159636 
-0.000117775 
-0.000205088 
2.17026e-05 
-0.000110847 
-0.000124316 
-3.48513e-05 
1.97929e-05 
-0.000150243 
-8.96494e-05 
-3.18965e-05 
-7.01464e-05 
-0.000131078 
-0.00015265 
-0.000115222 
-0.00021449 
0.00275563 
0.00551562 
0.00113961 
0.000600367 
0.00381452 
0.000902639 
0.00058977 
0.00116268 
3.9224e-05 
0.00447077 
0.00242648 
0.00341561 
0.00611861 
0.00161406 
0.0045042 
-0.0119813 
-0.000749017 
-0.000200591 
-0.00351386 
-0.00572822 
0.00116587 
-0.0015385 
-0.00219171 
-0.00429017 
0.0028595 
0.00208324 
-0.000384187 
3.30829e-05 
-0.000161627 
-2.03688e-05 
7.76748e-05 
1.97852e-05 
-3.71917e-05 
-3.15721e-05 
-3.35705e-05 
-9.31549e-05 
0.000123042 
2.11409e-05 
-0.000104143 
-0.000171288 
0.000159309 
1.68445e-05 
-0.00016982 
-0.0001617 
-6.77029e-06 
8.45674e-05 
7.71181e-05 
-6.83108e-05 
-0.000134966 
-0.000111966 
-0.000167403 
-0.000176737 
-0.000107348 
-0.00010615 
-0.000105696 
-2.29322e-05 
-0.000103231 
-4.46788e-05 
5.76722e-05 
0.000125571 
-0.00262762 
-0.0036245 
-0.00400439 
-0.00195535 
0.00272573 
-0.000368844 
0.00137157 
0.00241911 
0.014322 
0.00152323 
-0.000161467 
-1.54676e-05 
0.00365713 
0.00548192 
0.00570005 
0.00733844 
0.00298483 
-0.00585102 
-0.00239648 
0.00676024 
0.00768716 
0.00269701 
-0.00440666 
-0.000960838 
0.00284687 
-0.0039256 
-0.00334904 
-0.00476548 
0.000139533 
-6.61476e-05 
-0.000111846 
-3.98664e-05 
3.37666e-05 
-1.40674e-05 
-3.6925e-05 
-4.87635e-05 
-5.4096e-05 
-4.10167e-05 
-8.52998e-05 
-0.000109136 
8.19819e-05 
8.98969e-05 
0.000224995 
0.000335412 
7.17597e-05 
0.000210395 
0.000372826 
0.000365686 
-7.26553e-05 
8.66442e-05 
0.000228327 
9.08583e-05 
-0.00147351 
0.000861715 
0.00301755 
-0.00287312 
0.00292627 
0.000275281 
-0.0015367 
0.00167611 
0.00172039 
0.00195312 
0.00326746 
0.00234945 
-0.0081895 
-0.0108891 
-0.00475785 
-0.00940045 
-0.0143286 
-0.0165542 
0.00315792 
-0.00905872 
-0.0168431 
-7.49766e-05 
-1.18609e-05 
-2.01348e-05 
-8.38328e-06 
-0.000177027 
-0.000151067 
-7.3239e-05 
-5.98615e-06 
-5.15613e-05 
-0.000138608 
-7.47729e-05 
2.24319e-05 
4.63563e-05 
-4.36196e-05 
-5.3016e-05 
-6.11994e-05 
7.13077e-05 
5.50951e-05 
8.05731e-05 
9.5168e-05 
0.000121679 
0.000116539 
0.000121562 
0.00011821 
0.000181334 
0.000191072 
0.000182151 
0.000217535 
1.35876e-05 
0.000161947 
0.000230764 
0.000179912 
0.00142589 
0.00529309 
-0.00144942 
-0.000451695 
0.000375792 
0.00127604 
-0.0010607 
-0.00393966 
0.00563696 
0.00100207 
-0.00162112 
-0.00371894 
0.00270118 
0.00604904 
-0.00671058 
-0.0120026 
0.00412798 
0.00195064 
-0.00316705 
0.00150852 
-0.0043977 
-0.00334909 
-0.00541884 
-0.0050116 
-0.00419972 
-0.000907103 
-0.00447065 
-0.00479708 
-0.00341521 
-0.00293937 
-0.00974298 
-0.0101551 
0.000211606 
1.47194e-05 
-0.00010104 
-0.000129755 
0.000342199 
0.000184819 
-7.38847e-05 
-0.000153358 
-4.50959e-06 
7.83378e-05 
-0.000138684 
-0.000170159 
-0.000122252 
-1.71466e-05 
7.60173e-05 
2.53441e-05 
-0.000218068 
-0.000143308 
-8.4651e-05 
-0.000113399 
-0.000160503 
-0.000181838 
-0.000143089 
-9.73356e-05 
-0.00249862 
-0.0221704 
0.00549539 
6.91151e-05 
0.00449455 
0.00370918 
0.00135762 
0.00235082 
0.00327073 
0.00483227 
0.00662936 
0.00999576 
0.00652515 
0.00646897 
0.00261442 
-0.000284694 
-0.0032944 
-0.00489588 
0.0040574 
6.54584e-05 
-0.000974624 
0.00184522 
0.00232044 
-0.000456497 
6.52213e-05 
1.83744e-05 
-4.94831e-05 
-3.6678e-05 
6.49189e-05 
3.68462e-05 
5.95994e-06 
8.59139e-06 
0.000158081 
6.72349e-05 
3.19749e-05 
7.5521e-05 
0.000208121 
0.000181417 
0.000131221 
0.000203936 
-7.97111e-05 
-0.000149602 
-0.000139179 
-5.17119e-05 
1.23351e-05 
-3.86844e-05 
-3.15194e-05 
1.85319e-05 
8.28016e-05 
4.52074e-05 
4.83957e-05 
8.80992e-05 
0.000228992 
0.000153082 
0.00015514 
0.000207743 
-2.18725e-05 
-5.18994e-06 
8.2588e-05 
0.000214113 
-0.0029218 
-0.000590543 
-0.00270061 
-0.00532896 
-0.000934762 
-0.000314226 
0.00141857 
0.000561205 
-0.000389153 
-0.000609647 
-0.0014996 
-0.00205416 
-0.000492498 
-0.000315401 
-0.000364931 
-0.00111431 
-0.00387187 
-0.00263827 
-0.00391137 
-0.0064638 
0.00310752 
0.00375004 
-0.000888622 
-0.00301677 
-0.00144343 
0.000803603 
-0.00319896 
-0.00170496 
-0.00323671 
-0.00154734 
-0.00147601 
-0.00148125 
-0.00446768 
-0.00370075 
-0.00342759 
-0.004251 
7.82767e-05 
0.00016605 
0.000223227 
0.000221944 
-8.29541e-05 
-4.31774e-06 
7.22844e-05 
4.69831e-05 
-7.98019e-05 
-9.37995e-05 
-5.53586e-05 
-5.40077e-05 
0.000343824 
0.000343104 
0.000321553 
0.000375378 
0.000170641 
0.00031936 
0.000403962 
0.000322803 
9.987e-06 
0.000118025 
0.000189146 
0.000132641 
0.000313978 
0.000341435 
0.000212785 
-0.00166669 
0.00197189 
0.00325339 
-0.00248639 
-0.00873871 
-0.0074221 
-0.00994867 
0.00453758 
0.000493539 
-0.00604114 
-0.00415819 
0.000837682 
0.00172031 
-0.000736904 
-0.00224016 
-0.0170966 
-0.00534399 
-0.00279224 
-0.00704881 
-0.00733447 
-0.0144352 
-0.00683194 
-0.00908256 
0.000179201 
-0.00137996 
-0.00810611 
-0.00815219 
-7.19337e-05 
-6.72132e-05 
-6.4273e-05 
-3.81517e-05 
-8.45117e-05 
-5.7573e-05 
8.02482e-06 
-1.0818e-05 
0.000126668 
0.000158708 
0.000214783 
0.000273647 
-9.10911e-05 
-0.000120999 
-0.00018541 
-0.000280178 
-4.69943e-05 
-0.000104927 
-0.000157993 
-0.00016229 
0.000152967 
2.58826e-05 
-1.51607e-05 
5.16695e-05 
0.000277352 
0.000211229 
0.000140052 
0.000370459 
0.000826846 
-0.00162024 
-0.00301591 
-0.00017138 
0.00432425 
0.00229456 
0.00047312 
0.00167249 
-0.0018663 
0.002319 
-0.00143759 
-0.00684485 
-0.00706686 
-0.00623399 
-0.0114418 
-0.00735847 
0.00337376 
0.00350887 
0.00568814 
0.00620645 
0.000468204 
0.00259671 
0.00452272 
0.00745524 
-0.00209317 
-0.00154981 
-0.000453244 
0.0099704 
-0.00478905 
-0.00268592 
0.00126194 
-0.00967208 
0.000270556 
0.000280932 
0.00027661 
0.000339562 
0.000312279 
0.000288327 
0.00027988 
0.000266292 
0.000156527 
0.000241471 
0.00025125 
0.000321195 
0.000385944 
0.000226986 
0.000205327 
0.00016946 
0.00011784 
0.000142715 
0.00017685 
9.57426e-05 
-9.61347e-06 
-0.00780447 
-0.00589059 
-0.00529415 
-0.00367538 
-0.00914393 
-0.00825686 
-0.0047229 
-0.00622665 
-0.00613983 
-0.00650261 
-0.00748698 
-0.00703446 
-0.00445055 
-0.00623412 
-0.0216579 
-0.0162302 
-0.00323517 
-0.00235144 
-0.000454855 
0.00375089 
-0.00660541 
-0.00405023 
-0.000331761 
-0.000871248 
ITEM: TIMESTEP
2600000
ITEM: NUMBER OF ATOMS
896
ITEM: BOX BOUNDS pp pp ff
-1.7153631884999999e+01 1.8003017117999999e+01
-1.7855467918999999e+01 1.7553981017000002e+01
-3.4618715923000003e+01 3.4618715923000003e+01
ITEM: ATOMS q 
-1.48912e-05 
-0.000220479 
-4.23047e-05 
6.50485e-05 
9.01697e-05 
8.13171e-05 
0.000102823 
0.000137936 
7.73304e-05 
4.78607e-05 
0.000128844 
0.000123234 
-2.76429e-06 
4.32161e-05 
3.47139e-05 
3.90446e-06 
1.82046e-05 
-2.16117e-05 
0.000107523 
3.59688e-05 
-2.38797e-05 
-2.3981e-05 
0.000118486 
8.41628e-05 
5.04379e-06 
-6.44356e-06 
2.58081e-05 
-2.29324e-05 
-0.00439964 
-0.00424275 
0.00114683 
-0.000973925 
-0.000559122 
-0.00375661 
-0.00452624 
-0.00366276 
-0.00466711 
-0.00755656 
-0.00668688 
-0.0061781 
-0.00149953 
-0.00327826 
-0.000361147 
-0.00178452 
-0.00195114 
0.000307368 
0.000627526 
0.00205076 
-0.00180191 
0.00069235 
0.000714665 
0.000374793 
0.000899558 
4.05779e-05 
1.80866e-05 
3.82821e-05 
-0.000120289 
-5.12502e-05 
4.49119e-06 
-9.29829e-05 
-4.78072e-05 
-1.41593e-06 
1.38494e-05 
-0.000131389 
-5.39119e-05 
-1.84568e-05 
-1.13409e-05 
2.00675e-06 
-7.94956e-05 
-1.80488e-05 
-7.0235e-05 
-0.000118072 
-0.000100846 
3.00086e-05 
-9.21132e-06 
-5.5466e-05 
-0.000106604 
1.10074e-05 
6.90565e-06 
-7.3978e-05 
-0.000102402 
-0.00304145 
-0.000564773 
-0.00689507 
0.000147188 
0.00109042 
-0.00204309 
0.000514982 
-0.00190265 
-0.00271515 
-0.00318908 
0.00113706 
0.00120906 
-0.00224601 
-0.00107636 
3.7089e-05 
0.00237263 
0.00699024 
0.00331122 
-0.00279078 
-0.00160397 
0.000682456 
-0.00155842 
0.00118301 
0.00593133 
-2.93757e-05 
6.31035e-05 
7.33295e-05 
4.33966e-05 
1.50553e-05 
2.26491e-05 
8.32644e-05 
0.000122629 
2.66183e-05 
7.7779e-05 
0.000141082 
0.000150722 
6.11068e-05 
0.000135501 
2.74422e-05 
9.48016e-06 
3.95835e-05 
7.94473e-05 
0.000120266 
6.23396e-05 
6.26198e-05 
0.000113471 
0.000156393 
0.000157704 
0.000170868 
0.000126366 
0.000135456 
0.000107614 
0.00266781 
-7.09735e-05 
-0.00112668 
0.00129811 
-0.00285165 
-0.00258949 
-0.00101724 
-0.00515757 
-0.00502858 
-0.00306919 
-0.0011077 
-0.00408306 
-0.00511692 
-0.00354737 
-0.00296337 
-0.00528908 
-0.00451787 
0.00478015 
0.00207834 
-0.0160585 
-0.00595076 
-0.000741401 
0.000936011 
-0.00392581 
-0.0093558 
-0.00272084 
-0.00251594 
-0.00325044 
-2.36031e-05 
0.00011296 
-8.25019e-05 
-1.96506e-05 
4.91092e-05 
-6.40793e-05 
-0.00019863 
-0.000138235 
-0.000181134 
-0.00028416 
-0.000240141 
-0.000285402 
-0.00032148 
-0.000321962 
0.000105105 
3.9292e-05 
-6.21244e-05 
3.40858e-05 
7.35402e-06 
-5.45247e-05 
-0.000305043 
-0.000179677 
-0.00013865 
-0.000223669 
-0.000266501 
-0.000283664 
-0.000264497 
-0.000254794 
0.000488755 
0.000655756 
0.00312411 
0.00745403 
-0.00411955 
-0.00355773 
-0.00198462 
-0.00431872 
-0.00358141 
-0.000721282 
0.0062323 
0.00323988 
0.00543379 
0.0111208 
0.00782438 
0.005878 
0.00595145 
0.00252106 
-0.00229435 
-0.00214145 
-0.00152705 
0.0014804 
0.00571273 
0.00193031 
0.00100465 
0.00306531 
0.00354897 
0.00550747 
0.000122648 
2.97129e-05 
-1.41332e-05 
7.67377e-05 
0.000109055 
0.000119428 
0.000140666 
0.000176328 
0.000110468 
0.000149786 
0.000193451 
0.000130085 
6.6653e-05 
6.21583e-05 
5.82575e-05 
-7.32767e-05 
-5.03251e-05 
6.8289e-05 
0.000132938 
7.52165e-05 
6.50764e-05 
2.42311e-05 
0.000106077 
0.000106076 
1.46362e-05 
-3.74881e-05 
2.42052e-05 