ITEM: TIMESTEP
2000000
ITEM: NUMBER OF ATOMS
896
ITEM: BOX BOUNDS pp pp ff
-1.7153631884999999e+01 1.8003017117999999e+01
-1.7855467918999999e+01 1.7553981017000002e+01
-3.4618715923000003e+01 3.4618715923000003e+01
ITEM: ATOMS q 
0 
0 
0 
0 
0 
0 
0 
0 
0 
0 
0 
0 
0 
0 
0 
0 
0 
0 
0 
0 
0 
0 
0 
0 
0 
0 
0 
0 
0 
0 
0 
0 
0 
0 
0 
0 
0 
0 
0 
0 
0 
0 
0 
0 
0 
0 
0 
0 
0 
0 
0 
0 
0 
0 
0 
0 
0 
0 
0 
0 
0 
0 
0 
0 
0 
0 
0 
0 
0 
0 
0 
0 
0 
0 
0 
0 
0 
0 
0 
0 
0 
0 
0 
0 
0 
0 
0 
0 
0 
0 
0 
0 
0 
0 
0 
0 
0 
0 
0 
0 
0 
0 
0 
0 
0 
0 
0 
0 
0 
0 
0 
0 
0 
0 
0 
0 
0 
0 
0 
0 
0 
0 
0 
0 
0 
0 
0 
0 
0 
0 
0 
0 
0 
0 
0 
0 
0 
0 
0 
0 
0 
0 
0 
0 
0 
0 
0 
0 
0 
0 
0 
0 
0 
0 
0 
0 
0 
0 
0 
0 
0 
0 
0 
0 
0 
0 
0 
0 
0 
0 
0 
0 
0 
0 
0 
0 
0 
0 
0 
0 
0 
0 
0 
0 
0 
0 
0 
0 
0 
0 
0 
0 
0 
0 
0 
0 
0 
0 
0 
0 
0 
0 
0 
0 
0 
0 
0 
0 
0 
0 
0 
0 
0 
0 
0 
0 
0 
0 
0 
0 
0 
0 
0 
0 
0 
0 
0 
0 
0 
0 
0 
0 
0 
0 
0 
0 
0 
0 
0 
0 
0 
0 
0 
0 
0 
0 
0 
0 
0 
0 
0 
0 
0 
0 
0 
0 
0 
0 
0 
0 
0 
0 
0 
0 
0 
0 
0 
0 
0 
0 
0 
0 
0 
0 
0 
0 
0 
0 
0 
0 
0 
0 
0 
0 
0 
0 
0 
0 
0 
0 
0 
0 
0 
0 
0 
0 
0 
0 
0 
0 
0 
0 
0 
0 
0 
0 
0 
0 
0 
0 
0 
0 
0 
0 
0 
0 
0 
0 
0 
0 
0 
0 
0 
0 
0 
0 
0 
0 
0 
0 
0 
0 
0 
0 
0 
0 
0 
0 
0 
0 
0 
0 
0 
0 
0 
0 
0 
0 
0 
0 
0 
0 
0 
0 
0 
0 
0 
0 
0 
0 
0 
0 
0 
0 
0 
0 
0 
0 
0 
0 
0 
0 
0 
0 
0 
0 
0 
0 
0 
0 
0 
0 
0 
0 
0 
0 
0 
0 
0 
0 
0 
0 
0 
0 
0 
0 
0 
0 
0 
0 
0 
0 
0 
0 
0 
0 
0 
0 
0 
0 
0 
0 
0 
0 
0 
0 
0 
0 
0 
0 
0 
0 
0 
0 
0 
0 
0 
0 
0 
0 
0 
0 
0 
0 
0 
0 
0 
0 
0 
0 
0 
0 
0 
0 
0 
0 
0 
0 
0 
0 
0 
0 
0 
0 
0 
0 
0 
0 
0 
0 
0 
0 
0 
0 
0 
0 
0 
0 
0 
0 
0 
0 
0 
0 
0 
0 
0 
0 
0 
0 
0 
0 
0 
0 
0 
0 
0 
0 
0 
0 
0 
0 
0 
0 
0 
0 
0 
0 
0 
0 
0 
0 
0 
0 
0 
0 
0 
0 
0 
0 
0 
0 
0 
0 
0 
0 
0 
0 
0 
0 
0 
0 
0 
0 
0 
0 
0 
0 
0 
0 
0 
0 
0 
0 
0 
0 
0 
0 
0 
0 
0 
0 
0 
0 
0 
0 
0 
0 
0 
0 
0 
0 
0 
0 
0 
0 
0 
0 
0 
0 
0 
0 
0 
0 
0 
0 
0 
0 
0 
0 
0 
0 
0 
0 
0 
0 
0 
0 
0 
0 
0 
0 
0 
0 
0 
0 
0 
0 
0 
0 
0 
0 
0 
0 
0 
0 
0 
0 
0 
0 
0 
0 
0 
0 
0 
0 
0 
0 
0 
0 
0 
0 
0 
0 
0 
0 
0 
0 
0 
0 
0 
0 
0 
0 
0 
0 
0 
0 
0 
0 
0 
0 
0 
0 
0 
0 
0 
0 
0 
0 
0 
0 
0 
0 
0 
0 
0 
0 
0 
0 
0 
0 
0 
0 
0 
0 
0 
0 
0 
0 
0 
0 
0 
0 
0 
0 
0 
0 
0 
0 
0 
0 
0 
0 
0 
0 
0 
0 
0 
0 
0 
0 
0 
0 
0 
0 
0 
0 
0 
0 
0 
0 
0 
0 
0 
0 
0 
0 
0 
0 
0 
0 
0 
0 
0 
0 
0 
0 
0 
0 
0 
0 
0 
0 
0 
0 
0 
0 
0 
0 
0 
0 
0 
0 
0 
0 
0 
0 
0 
0 
0 
0 
0 
0 
0 
0 
0 
0 
0 
0 
0 
0 
0 
0 
0 
0 
0 
0 
0 
0 
0 
0 
0 
0 
0 
0 
0 
0 
0 
0 
0 
0 
0 
0 
0 
0 
0 
0 
0 
0 
0 
0 
0 
0 
0 
0 
0 
0 
0 
0 
0 
0 
0 
0 
0 
0 
0 
0 
0 
0 
0 
0 
0 
0 
0 
0 
0 
0 
0 
0 
0 
0 
0 
0 
0 
0 
0 
0 
0 
0 
0 
0 
0 
0 
0 
0 
0 
0 
0 
0 
0 
0 
0 
0 
0 
0 
0 
0 
0 
0 
0 
0 
0 
0 
0 
0 
0 
0 
0 
0 
0 
0 
0 
0 
0 
0 
0 
0 
0 
0 
0 
0 
0 
0 
0 
0 
0 
0 
0 
0 
0 
0 
0 
0 
0 
0 
0 
0 
0 
0 
0 
0 
0 
0 
0 
0 
0 
0 
0 
0 
0 
0 
0 
0 
0 
0 
0 
0 
0 
0 
0 
0 
0 
0 
0 
0 
ITEM: TIMESTEP
2200000
ITEM: NUMBER OF ATOMS
896
ITEM: BOX BOUNDS pp pp ff
-1.7153631884999999e+01 1.8003017117999999e+01
-1.7855467918999999e+01 1.7553981017000002e+01
-3.4618715923000003e+01 3.4618715923000003e+01
ITEM: ATOMS q 
-0.0001104 
0.00586689 
-0.000284838 
-7.5664e-05 
-0.000333419 
0.00852114 
-7.8849e-05 
-0.000183242 
-0.000344527 
0.00316768 
-0.00030784 
-0.000283964 
-0.000342839 
-0.000379556 
-4.40238e-05 
-0.000190448 
-0.000172185 
0.00116611 
0.00128766 
0.00280688 
-0.000250292 
0.00245474 
-0.000316512 
0.000474442 
-0.000340359 
-0.000321641 
-0.000114554 
-4.86253e-05 
0.00519346 
-0.000359573 
-0.000186874 
0.00568635 
0.000377043 
-0.000213109 
0.00188033 
-0.00483269 
-0.00193954 
0.00168369 
0.00470908 
0.000707819 
0.000765245 
0.000781726 
0.0112702 
0.00320144 
0.00103234 
0.00236537 
0.00214867 
0.00423561 
0.0035622 
-0.00712042 
0.00184328 
0.00236646 
-0.00846566 
-0.0103659 
0.00477372 
0.00374602 
0.00350372 
0.00646937 
-5.49219e-05 
-3.64166e-05 
-7.75185e-05 
-7.95543e-05 
-0.000163607 
-9.59712e-05 
-8.93892e-05 
-0.00011799 
-0.000283628 
-0.00017504 
-0.00018016 
-0.000254483 
3.65637e-06 
-2.77076e-05 
6.21928e-05 
-1.71367e-05 
9.68068e-05 
0.000153423 
-0.000270867 
-0.000107401 
-8.39304e-05 
-0.000223785 
0.0101695 
0.00688552 
0.00382181 
0.00343751 
0.00446523 
0.00501023 
0.00176254 
-0.00175006 
0.00450669 
0.000169923 
-0.00616609 
0.00054855 
-0.000115972 
0.00178921 
0.00151385 
0.00069838 
0.00405739 
0.00853618 
0.00926694 
0.00399459 
0.00169483 
0.00276696 
0.0026044 
-0.000651123 
0.00149342 
0.001033 
-0.00084709 
-0.000509101 
-0.0024764 
-0.0019705 
-0.000654305 
0.00172764 
-0.000306728 
-0.000241998 
-0.000262594 
-0.000248448 
-0.000166614 
-0.000172954 
-0.000159689 
-0.000102484 
-8.32845e-05 
-3.11969e-05 
-4.60008e-05 
-4.47541e-05 
-9.81175e-05 
-5.95722e-05 
-3.19901e-05 
-1.19073e-05 
-0.000251663 
-0.000299905 
-0.000255195 
-0.000100257 
-0.000155981 
-0.000112822 
-4.13083e-05 
-4.96936e-05 
-4.02399e-05 
-2.8142e-05 
-3.89123e-05 
-5.4307e-05 
-0.00910144 
-0.000881637 
-0.00436548 
-0.00303474 
-0.0104878 
-0.0110691 
0.000903316 
0.00493062 
0.00649926 
0.0052205 
0.00863307 
0.00599363 
-0.00225582 
-0.00451282 
0.000973979 
0.000389978 
0.00376576 
0.00184748 
0.00257197 
0.00670687 
0.00562149 
0.00496318 
0.0058653 
0.00833486 
0.00217444 
0.00805997 
0.00619057 
0.000160894 
9.07932e-05 
-0.000243009 
0.000120238 
4.0611e-05 
-1.75834e-05 
-3.13662e-05 
-3.65306e-05 
1.90878e-05 
-9.51266e-05 
-0.000220281 
-0.000275475 
-0.000254313 
-0.000291123 
-0.000353547 
-8.61307e-05 
-0.000109373 
-0.000206767 
-0.000223193 
-0.000260324 
-0.000200269 
-0.00026481 
-0.000371745 
-0.000370624 
-0.000349068 
-0.00038434 
-0.000383337 
-0.000244902 
0.00258804 
0.00624987 
-0.000266948 
-0.000106765 
0.00324494 
-0.00264903 
-0.000399818 
0.00779141 
0.00270896 
0.000500229 
0.00257965 
0.00105138 
-8.99582e-05 
-8.64486e-05 
0.00126528 
0.00685791 
-0.000371104 
0.00706022 
0.00741495 
-0.000118213 
-0.000365132 
0.00340132 
-0.00040576 
0.00699867 
-0.00264862 
-4.79771e-05 
0.00896479 
0.00119385 
0.0102712 
-0.000369341 
-0.000141375 
0.00286708 
-0.000670483 
0.0072953 
0.004133 
-9.38999e-05 
-5.53336e-06 
0.00493187 
-3.96296e-05 
-0.00365099 
0.00629958 
-0.00418361 
0.00169155 
-0.00356249 
0.00592757 
0.00777549 
0.00401452 
0.00578652 
0.00545414 
0.00732399 
0.0091222 
0.0112315 
0.00768321 
0.00434867 
0.0106703 
0.0116206 
0.0064702 
0.000845858 
0.00202583 
0.00324363 
-0.00022763 
0.0046576 
0.000325399 
-0.00289153 
-0.000167264 
0.00473452 
0.00137093 
0.0033004 
-0.000277804 
-0.000287269 
-0.000303679 
-0.000274251 
-0.000379605 
-0.000322619 
-0.000286193 
-0.000237624 
-0.000397839 
-0.00041863 
-0.000311752 
-0.000341529 
-0.000285901 
-0.000329745 
-0.000288685 
-0.000265964 
-0.000161489 
-0.00021314 
-0.000211929 
-0.000172044 
-0.00027028 
-0.000143767 
-0.000156846 
-0.000209843 
6.87292e-05 
-0.000168249 
0.00326001 
0.00629164 
0.00788791 
0.00454485 
0.00783289 
0.0110128 
0.0095554 
0.00743404 
0.00599805 
0.00470235 
0.00322448 
0.00366939 
0.0126348 
0.00914786 
0.00849667 
0.00942445 
0.0142538 
0.0147351 
0.00931168 
0.00613044 
0.0105744 
0.0106299 
0.00698749 
0.00465153 
0.0064812 
0.00696647 
0.00454248 
0.00263649 
0.00807066 
0.00375852 
0.00078857 
0.000590009 
-0.000369327 
-0.000397527 
-0.000438752 
-0.000522589 
-0.000444494 
-0.000448754 
-0.000537264 
-0.000583022 
-0.000360926 
-0.000460784 
-0.00050622 
-0.00044967 
-0.000125073 
-0.00028409 
-0.000342719 
-0.000278312 
-0.000504417 
-0.000373936 
-0.00030628 
-0.000322408 
-0.000519577 
-0.000489374 
-0.000356079 
-0.000220192 
-0.000384834 
-0.000394191 
-0.000237579 
-0.000145872 
-0.000258428 
-0.000274408 
-0.000186069 
-7.38929e-05 
7.64781e-05 
0.00467492 
0.011172 
0.00963085 
0.00231396 
0.00344595 
0.00447375 
0.00168928 
0.00334286 
0.00156142 
0.0117721 
0.0125823 
0.00554068 
0.00683212 
0.00785362 
0.00862763 
0.00712497 
0.00828061 
3.85454e-05 
0.00663728 
0.00526824 
0.0115368 
-0.000310102 
-0.000339855 
-0.000345369 
-0.000413259 
-0.000224435 
-0.000301893 
-0.000374504 
-0.000352307 
-0.000186932 
-0.000202408 
-0.000244209 
-0.000186444 
-0.000370752 
-0.0003007 
-9.05143e-05 
-5.82741e-05 
-0.000338615 
-0.000314445 
-0.000132662 
-9.12595e-05 
-0.00023571 
-0.000259065 
-0.000102178 
-7.54069e-05 
-0.0053961 
-5.9455e-05 
6.99074e-05 
6.64463e-06 
0.00865374 
-0.00390058 
0.00701383 
0.000817339 
-4.77774e-05 
-1.30588e-05 
-2.36202e-05 
-2.9029e-05 
3.74319e-05 
-0.000113746 
-0.00121034 
-4.46309e-05 
-6.97856e-06 
3.71397e-05 
-4.3587e-05 
-0.00749567 
-0.00493522 
-0.000119334 
0.00204709 
-0.000110537 
2.30401e-05 
0.00486443 
0.00335122 
-0.00210414 
8.6722e-05 
-0.000188856 
4.90686e-05 
-4.54538e-05 
-0.00635715 
9.31812e-06 
-0.000204497 
-0.000132847 
0.00910155 
-0.00228315 
-0.0029981 
-0.000136845 
0.00507806 
-4.6483e-05 
-6.12729e-05 
-2.87906e-05 
0.000532462 
-7.53275e-05 
0.000982257 
-0.00423462 
-6.38885e-05 
-0.000155917 
0.00417663 
0.00917574 
0.00234214 
-0.00206625 
0.00298626 
0.00299819 
0.00713951 
0.00164025 
-0.000191702 
0.00550725 
-0.000274565 
0.000314482 
0.00562167 
0.0042782 
-0.015937 
-0.001278 
-7.31602e-05 
0.000857555 
-0.00523483 
-0.000860489 
0.00367596 
0.00360702 
-0.00568597 
-0.00171796 
8.67178e-05 
-0.00140048 
-0.00233948 
0.000560241 
0.00172389 
-0.00272209 
-0.00293081 
2.41301e-05 
0.000439306 
0.000788607 
-0.00105515 
-0.004138 
0.00238563 
0.00279751 
-0.00176906 
-0.00183122 
0.00174702 
-0.00245337 
-0.000109531 
-4.09398e-05 
-3.16051e-05 
-4.76459e-05 
-0.000120867 
-8.90055e-05 
-9.23914e-05 
-9.51215e-05 
-9.09489e-05 
-6.7641e-05 
-0.000101062 
-0.000119437 
-0.000166008 
-0.000204981 
-1.29839e-05 
-1.26522e-05 
-4.37607e-05 
-4.85589e-05 
-1.59547e-05 
-3.29923e-05 
-8.07958e-05 
-2.82161e-05 
-4.1748e-05 
-7.41969e-05 
-4.98094e-05 
0.0109482 
0.0027068 
0.0104484 
0.00678285 
0.00555654 
0.00804321 
0.00907771 
0.00377101 
0.00745688 
0.00802098 
0.00133007 
-0.00620723 
-0.00414052 
-0.00440345 
-0.00514578 
0.00897614 
-0.000991728 
0.00436587 
0.00565095 
0.00219328 
0.00427934 
-0.00146396 
0.00271227 
0.00546553 
0.00350588 
0.00450197 
0.000987653 
0.00385434 
0.00455395 
-0.000300062 
-0.000287307 
-0.000413532 
-0.000352095 
-0.000341525 
-0.000290236 
-0.000172367 
-0.00028272 
-0.000242109 
-0.000141651 
-1.46198e-05 
-2.93212e-05 
-7.40167e-05 
-7.95631e-05 
-0.000182383 
-0.000243192 
-0.000198975 
-0.000159136 
-0.000183104 
-0.00022908 
-0.000227766 
-0.000109312 
-0.000153649 
-0.000131422 
0.00501124 
-0.00159445 
-8.60327e-05 
0.000689301 
0.00115547 
0.00066214 
0.000680186 
0.00414749 
0.00649044 
0.000407549 
0.00257113 
0.00395012 
0.0011621 
-0.000441865 
-0.00127087 
0.000754717 
-0.00171443 
-0.0015421 
-0.00796195 
0.00348259 
-0.000494155 
-0.00207361 
0.00671887 
0.00410674 
0.00649194 
0.00974025 
0.0099833 
0.00484428 
0.00846933 
-0.0145719 
0.00235715 
0.00696789 
-5.34351e-05 
-7.1303e-05 
-6.43551e-05 
-9.98652e-05 
-0.000105621 
-9.73429e-05 
-8.38914e-05 
-0.000156354 
-0.000163175 
-0.000153388 
-0.000217144 
-0.000109041 
-0.000182813 
-0.000239479 
-0.000253282 
-9.26776e-05 
-0.000179878 
8.87334e-06 
1.56638e-05 
7.70723e-05 
0.000171509 
-0.000212471 
-4.30296e-05 
3.34623e-05 
-0.000116733 
-0.000341966 
-0.000336914 
-0.000297565 
-0.000353936 
-0.00038049 
-0.000411762 
-0.00019673 
-0.000302393 
-0.000333003 
-6.97929e-05 
-0.000144224 
0.00659748 
-0.000797095 
-7.61526e-05 
-0.000189184 
-0.000530991 
-0.000203867 
-0.000252411 
0.00294875 
-0.000380215 
-0.000347584 
0.00355592 
-0.000114394 
-2.01148e-05 
0.00707166 
0.00422039 
-0.000165295 
0.00237955 
-0.000168202 
-0.00305692 
0.00445264 
-0.000147587 
-0.000699204 
-0.000283183 
-0.000228107 
-0.000247392 
-0.000169736 
-0.000237556 
0.00102714 
-0.000327631 
-0.000249986 
-9.5958e-05 
0.00166908 
0.00458586 
-0.00210283 
-0.000211951 
-4.67586e-05 
-0.00311962 
-9.32047e-05 
-0.000264039 
0.00335866 
0.00536057 
-4.77186e-05 
0.00089009 
-0.000134052 
-2.60879e-06 
0.00827136 
5.83858e-05 
-1.75539e-05 
0.00203667 
0.00157843 
-0.00262627 
6.19979e-05 
8.87339e-05 
-4.39115e-05 
-0.000224035 
-0.00526975 
0.000626791 
-0.00198079 
0.00118316 
1.74477e-05 
-0.000656075 
-5.45412e-05 
-0.000112611 
-0.0013964 
-0.00475611 
0.00153742 
0.00104588 
-0.00666739 
-0.00167824 
0.000171352 
0.00329009 
0.00117573 
0.00491114 
0.0085428 
0.00671581 
0.00250673 
0.00412216 
0.00213833 
-6.55577e-05 
0.00253762 
0.000373761 
4.16901e-06 
-0.000988892 
0.00597549 
0.00791883 
0.00383875 
-0.00542758 
0.00588437 
-0.000280306 
-0.00316853 
-0.0049542 
-0.00753298 
6.19093e-05 
-6.52425e-05 
-0.000162487 
-0.00013194 
-7.26277e-05 
-1.53051e-05 
-9.74513e-05 
-0.000153902 
-0.00028946 
-0.00019006 
-0.000207563 
-0.000249302 
-0.000280101 
-0.000219431 
-0.00012115 
-0.000145209 
-4.22813e-05 
7.5132e-05 
-0.000115726 
-4.9297e-05 
4.70337e-05 
9.13464e-05 
-0.000143794 
-8.34842e-05 
4.07879e-05 
7.86029e-05 
-8.84933e-05 
2.31116e-06 
-0.000341786 
0.00660203 
-0.00248496 
0.000825263 
0.00487814 
0.00145605 
0.0011421 
0.00452028 
0.00380428 
0.00720208 
0.00160112 
0.000157541 
0.00246679 
0.00217713 
0.00664439 
0.00831319 
0.00203247 
0.00249534 
0.000882206 
-0.00303454 
0.0110505 
0.00797628 
0.0083819 
0.0110384 
-0.00147754 
0.00072332 
-0.00190078 
0.00178822 
-0.000282743 
-0.000177737 
-0.000224625 
-0.000177384 
-0.000147328 
-0.000160184 
-0.000236528 
-0.000193749 
-0.000171448 
-0.000229212 
-0.000274702 
-0.000245629 
-0.000274687 
-0.000324536 
-0.000164188 
-1.76805e-05 
-0.000187557 
-0.000182392 
-0.000114178 
-8.21269e-05 
-0.000207402 
-0.000166729 
-0.000110161 
-5.13392e-05 
-0.000281203 
-0.000235373 
-0.000154413 
-0.000215613 
-0.000208479 
-0.00435264 
-0.00396322 
-0.00484003 
-0.00619406 
-0.00762455 
0.000133692 
-0.00295784 
0.00238426 
0.00190477 
-0.00297636 
0.0010612 
0.000709593 
0.00716181 
0.0095471 
-0.0150402 
0.000555785 
0.00199784 
-0.00186674 
-0.00702221 
-0.00291387 
0.00136255 
0.000495843 
-0.00263052 
-0.0105005 
-0.00459996 
0.000119981 
5.37315e-05 
-4.42328e-05 
-4.2296e-05 
9.41204e-05 
0.000110319 
1.83237e-05 
-2.10441e-05 
3.98479e-05 
1.47489e-05 
-1.05406e-05 
4.67685e-05 
8.54632e-06 
5.18853e-05 
-9.29707e-05 
-0.000214258 
-0.00028067 
-0.000418411 
-3.87338e-05 
-8.93823e-05 
-0.000312865 
-0.000303858 
5.23684e-05 
-3.47259e-05 
-9.04966e-05 
-9.24574e-05 
7.21438e-05 
-2.55032e-05 
7.62782e-05 
-8.29231e-05 
-0.000155741 
-0.000114982 
-0.000974265 
4.81515e-05 
8.16747e-05 
-0.000364021 
-9.30515e-05 
-0.000171648 
-5.64665e-06 
5.67316e-06 
8.91921e-05 
0.0100865 
-0.0048779 
0.000333732 
-5.25388e-05 
0.00166084 
0.00114652 
0.00147362 
-4.48615e-05 
-0.000246882 
-0.00956262 
-0.00144221 
3.48224e-05 
-0.000274883 
0.000617859 
-8.19097e-05 
0.00854314 
ITEM: TIMESTEP
2400000
ITEM: NUMBER OF ATOMS
896
ITEM: BOX BOUNDS pp pp ff
-1.7153631884999999e+01 1.8003017117999999e+01
-1.7855467918999999e+01 1.7553981017000002e+01
-3.4618715923000003e+01 3.4618715923000003e+01
ITEM: ATOMS q 
-0.000323654 
-0.00032916 
-0.0030139 
0.00843163 
0.00163218 
3.29166e-05 
-0.000398566 
0.00254827 
-0.000515876 
-0.00475727 
-0.00602628 
-0.00355526 
-0.0043719 
-0.00589075 
-0.00260712 
7.12655e-05 
6.00004e-05 
0.00695057 
0.00803333 
-0.00173334 
0.000971654 
0.00597119 
0.00656484 
0.00337984 
0.00683065 
0.0110152 
0.00498398 
2.46016e-05 
-9.81734e-06 
-3.89788e-05 
-7.89254e-05 
9.0446e-05 
3.98702e-05 
-9.78699e-06 
-7.26714e-05 
3.85863e-05 
7.34569e-05 
-3.37829e-05 
-0.000106019 
-0.000193972 
-0.000252396 
-0.00034258 
-0.000221733 
-0.000267159 
-0.000293888 
-0.000168349 
-0.000266374 
-0.000222896 
0.00320432 
-0.0054581 
0.00132836 
0.0034503 
-0.00168875 
-0.00176257 
-0.000761474 
-0.0013373 
-0.00738655 
0.00359276 
0.000483141 
-0.00685106 
-0.0141878 
-0.00462849 
-8.60035e-05 
-0.00232598 
-0.00294629 
-0.00522319 
0.00282007 
0.00158233 
-0.000237203 
-0.0102732 
-0.00280214 
0.00585256 
0.00470031 
-0.020569 
-0.0123343 
0.00278346 
0.00472431 
0.000267979 
0.000391135 
0.00489439 
0.00592206 
4.72991e-05 
-4.92851e-06 
-2.878e-05 
2.65043e-05 
0.000149008 
0.000113884 
0.000130364 
0.000226147 
0.000181698 
0.000226543 
0.000305616 
0.000310303 
0.00018406 
0.000183376 
0.000207542 
-1.35634e-06 
-3.72603e-05 
-0.000130117 
-9.19957e-05 
7.10068e-05 
-7.78594e-05 
-0.00016754 
7.47213e-05 
-3.22567e-05 
-0.000250639 
-0.000147328 
-0.000150942 
-0.000286378 
0.0109164 
0.011668 
0.00340416 
0.000318557 
0.00203672 
0.00133696 
0.00128842 
-0.00122884 
0.00194687 
0.00329564 
-4.8044e-05 
0.000426396 
-0.010259 
0.000407728 
0.00399435 
-0.00565341 
-0.00488231 
-0.0135101 
-0.0199831 
-0.0255922 
0.00107188 
-0.00381182 
-0.00768258 
0.000462167 
0.000755029 
-0.00609702 
0.0104383 
-0.000312986 
-0.000216038 
-0.000100322 
-0.000200247 
-0.000237618 
-5.68735e-05 
0.000181654 
-0.000108363 
-6.75623e-05 
0.000152199 
0.000211889 
-1.9351e-05 
-3.80039e-05 
5.6833e-05 
-1.2546e-07 
0.000238728 
3.5248e-05 
-5.24004e-05 
2.7144e-06 
0.000393822 
0.000437102 
0.000247847 
0.000123945 
3.35215e-06 
0.000235431 
9.31775e-05 
-0.000237682 
0.00726874 
-0.0102355 
0.00672351 
-0.000270987 
-0.000493718 
0.00540051 
0.0102448 
0.00595285 
-7.77729e-05 
-0.000249653 
-7.79529e-05 
0.00677341 
-0.000253099 
-0.000344841 
0.00829437 
0.00279015 
-0.000322799 
0.00284844 
-0.000271907 
0.0028504 
-0.00019339 
-0.000277531 
0.00383204 
-0.0023038 
0.0101356 
0.00760828 
-0.000348461 
0.00418012 
-0.000265336 
0.0108199 
0.00575155 
-6.39505e-06 
-0.000473746 
0.000746227 
0.00870045 
0.00642284 
0.0115238 
0.00649004 
0.00356739 
0.00610136 
-0.000450721 
-0.000320582 
0.00973294 
-0.000411347 
0.00414067 
-0.000315011 
-0.000350659 
-0.000291085 
-0.000270863 
-8.84557e-05 
0.0162804 
-0.000154382 
-0.000372012 
0.00354497 
-0.00031721 
0.00692675 
-0.00020806 
-0.000201698 
-0.0003975 
-0.000471844 
-0.000156369 
0.00350283 
-0.000399195 
0.0049087 
-0.000498332 
0.00595267 
0.00189787 
-0.00046841 
-0.0029513 
0.000175432 
0.00015609 
-0.000130807 
-6.08366e-05 
-0.000486681 
0.00501597 
0.00489571 
0.0049186 
0.00662007 
0.00053468 
0.00518311 
0.00357259 
0.00745469 
0.00577003 
0.00351795 
0.00396138 
6.77475e-06 
0.00207088 
0.00111801 
0.00389094 
0.00519407 
-0.000523878 
-0.00322388 
-0.00219683 
-0.0039703 
-0.00588351 
-0.0041185 
0.00400074 
0.00137413 
-0.0022037 
-0.000147265 
-0.000218664 
-0.000192573 
-0.000188245 
-0.000133416 
-0.000171621 
-0.000213307 
-0.000133837 
-0.000264547 
-0.000205554 
-0.000129689 
-3.24962e-05 
-0.000140241 
-0.000156288 
-0.00018745 
-0.000177205 
-4.59876e-05 
-9.1839e-05 
-0.000110587 
-5.99935e-05 
7.88443e-05 
7.48861e-05 
6.01289e-05 
9.05789e-05 
0.00953298 
0.00614633 
0.00960194 
0.0083148 
0.0083505 
0.00629585 
0.00302977 
0.00518973 
0.00591925 
0.00461931 
0.0018636 
0.00222673 
0.00119817 
-0.00572517 
-0.00459261 
-0.0010544 
0.00725433 
0.00414463 
0.00170558 
0.00490454 
0.00325707 
0.00564799 
0.00656577 
0.00317793 
0.00051775 
0.000854395 
0.00222908 
-0.00261898 
-0.000166314 
-1.15155e-05 
0.00375871 
-0.000888253 
-0.000379273 
-0.000315804 
-0.000166125 
-0.00017172 
-0.000339846 
-0.000372535 
-0.000301106 
-0.000282066 
-0.000284408 
-0.000301169 
-0.000291415 
-0.000229164 
-0.000324613 
-0.000262376 
-0.000210009 
-0.000166892 
-5.63927e-05 
6.94952e-05 
8.23334e-05 
6.63401e-05 
-0.000218512 
-0.000124214 
-2.36895e-05 
-4.01063e-05 
-0.000203136 
-0.000220104 
-0.000149096 
-0.000144379 
-0.000109764 
-0.00013017 
-0.000126025 
-5.56062e-05 
-6.24156e-05 
-4.48299e-06 
0.00444138 
0.002115 
0.000447333 
0.00913234 
0.00332231 
-0.00209265 
-0.00155539 
-0.00161138 
-0.00205627 
-0.000838445 
-0.00257885 
0.000175084 
0.0155147 
-0.00621832 
-0.00365958 
0.00387051 
0.00518201 
-0.00182269 
-0.00403588 
-0.0014158 
-0.00451698 
-0.000164936 
-0.00016586 
-0.000113286 
-3.77817e-05 
-5.64705e-05 
-0.000103513 
-1.49508e-05 
5.97039e-05 
9.18628e-05 
5.61129e-05 
8.41352e-05 
0.000111715 
-6.41209e-05 
-7.52381e-05 
0.000145276 
0.000174269 
1.35144e-05 
-5.31881e-05 
6.02512e-05 
0.000106787 
8.75146e-05 
3.28175e-05 
1.76909e-05 
-1.08743e-05 
-0.000412577 
0.00490918 
-0.00413007 
0.000118365 
4.91767e-05 
-0.000119112 
-0.0064787 
0.000170352 
-0.000862941 
0.00487715 
-0.000145876 
0.000451587 
-0.000113277 
-0.000141529 
-7.97898e-05 
-0.0119301 
-3.89185e-05 
-1.37582e-05 
2.20205e-05 
0.00273646 
1.65063e-05 
-0.000147804 
6.21287e-05 
0.00739641 
-0.00526519 
0.000177732 
0.00119153 
0.00364367 
-1.60434e-05 
-0.0112417 
0.000177726 
-3.04698e-05 
-0.000105223 
-3.02792e-05 
-3.53492e-05 
-0.00399818 
0.00460829 
-6.53381e-05 
-0.00124454 
-0.00131544 
-0.00578773 
-8.32217e-07 
-0.00124221 
0.00213574 
-0.00116801 
6.13522e-05 
-9.38603e-05 
-0.000137212 
0.000467697 
-0.00300138 
0.00163853 
-0.000351457 
0.00765049 
-0.000292692 
-0.000341455 
-0.000317728 
-0.000231762 
-0.000248154 
0.0116072 
0.00313755 
0.00313091 
-0.000252753 
-0.000395235 
-0.000234123 
0.00786115 
0.0064331 
-0.000268633 
0.00355885 
-0.0291764 
-0.00798674 
-0.00373967 
-0.0035351 
-0.0131924 
-0.0108962 
-0.0036662 
-0.00178564 
-0.0213126 
-0.0169969 
-0.00826673 
-0.00350108 
-0.00943896 
-0.00250604 
0.00115331 
0.00639695 
0.00881548 
0.00529865 
-0.00450974 
-0.000454934 
0.000964814 
-0.000967091 
-0.00249185 
-0.00756193 
-0.00108467 
0.00122023 
0.00190404 
0.000817238 
0.000370645 
0.00017613 
2.16019e-05 
-2.00529e-05 
0.000463843 
0.00024451 
0.00011075 
0.000117964 
0.000402877 
0.00029183 
0.000166286 
7.07176e-05 
6.4719e-05 
-3.70719e-05 
-0.000118076 
-0.000227508 
-0.000185095 
3.76049e-05 
-5.9723e-05 
-3.78485e-05 
-4.73906e-06 
1.20873e-05 
-7.67494e-05 
-0.000162953 
-0.000225927 
-0.000221666 
0.00285618 
0.00445667 
0.0116206 
0.00910148 
0.00588274 
0.00589864 
0.00278904 
0.00603575 
0.00764472 
0.00535112 
0.00468944 
0.00147377 
0.00206752 
-0.00563613 
0.0054505 
0.00811471 
0.00351108 
0.00559335 
0.00914128 
0.00369205 
0.00381645 
0.00474811 
0.00481524 
0.00666675 
-0.00928885 
0.00358814 
0.00674453 
0.00773407 
-8.39834e-05 
-0.000202708 
-0.000364628 
-0.000261464 
-0.000266795 
-0.000296844 
-0.00025272 
-0.000286939 
-0.000280911 
-0.000227559 
-2.77085e-05 
-0.000105605 
-0.000102189 
-2.14804e-05 
-0.000245535 
-0.00029983 
-0.000323175 
-0.000301947 
-0.000253032 
-0.00029243 
-0.000260356 
-0.000203545 
-0.000263567 
-0.000301232 
0.0087371 
-0.000324911 
-0.00341956 
-0.0012504 
-0.00294537 
-0.0078359 
0.00109573 
-0.00537219 
-0.00751955 
0.00375723 
0.00212534 
0.00222731 
0.00434758 
0.00190964 
0.00511057 
0.00134041 
0.00558303 
0.00676149 
0.00843593 
0.00739476 
0.0041372 
0.00732493 
0.00769083 
0.00784863 
0.00281985 
0.00391724 
0.00613402 
0.00823919 
0.00396209 
0.00920427 
0.0089568 
0.00775154 
0.000258879 
-6.06282e-05 
-3.14697e-05 
-0.000158287 
-1.78504e-05 
-0.000147413 
-0.000263683 
-0.000241709 
-5.14604e-05 
4.8918e-06 
-0.000132361 
-0.000236755 
-0.000182547 
-0.000153616 
-0.000199965 
-0.000245806 
-0.000204897 
-0.000227824 
-0.000382633 
-0.000440236 
-0.000449353 
-0.000428798 
-0.000323713 
-0.000386241 
-0.000406345 
-0.000283757 
-0.000291702 
-0.000317727 
-0.000247018 
-8.7093e-05 
-0.000339954 
-0.000199493 
0.00917169 
-0.000252501 
0.00721317 
-0.000364755 
-0.000320523 
-0.000247108 
-0.000195811 
0.00247115 
-0.000297592 
0.00200812 
0.00345117 
0.00740847 
0.00305629 
-0.000299171 
0.00611362 
0.008334 
0.0110206 
-0.000177147 
-0.000348927 
-1.98508e-05 
0.00494455 
-0.000280035 
-0.00027237 
-0.000221002 
0.00442522 
0.00189584 
-0.000297051 
-0.000367841 
0.0041553 
-0.000225308 
0.00528631 
-0.000263165 
0.00941388 
0.000646023 
0.00149795 
-0.000304344 
0.00489598 
-0.000239801 
0.00884045 
-0.000276202 
0.00935938 
0.00546456 
-0.000158942 
0.00412907 
-0.000101793 
-0.00114727 
-0.000144779 
3.80325e-05 
0.00450961 
-0.000129669 
-0.000235496 
0.00452593 
0.00252784 
-0.000143024 
-0.000181759 
0.000106237 
-0.00169938 
0.00412704 
-3.54662e-05 
-4.08074e-05 
-0.000274551 
0.000347336 
0.00532317 
-0.000288176 
0.00691312 
-0.000139637 
0.00484992 
-0.000267847 
-0.000164721 
-0.000107191 
-0.000201808 
0.00286713 
0.003466 
0.00876297 
-0.000244755 
-0.000187073 
2.58754e-05 
0.00297101 
-0.00536194 
-2.45933e-05 
-0.0012238 
0.00773563 
-0.00017143 
-0.000123701 
0.00131153 
-0.000220009 
0.000877317 
0.0029085 
3.12295e-05 
0.00928346 
0.00764862 
0.00963691 
0.00809836 
0.00685618 
0.000490906 
0.00144322 
-0.00707257 
-0.0285024 
-0.00499996 
-0.0158177 
0.00758748 
0.00188989 
-0.00129655 
0.00176129 
-0.00121505 
0.00113314 
-0.00173084 
-0.00436134 
-0.00673342 
0.00127643 
-0.00228536 
-0.000867501 
-0.00256452 
-0.0011303 
0.000663959 
-0.00324186 
0.00365714 
-0.000394961 
-0.000348581 
-0.000244178 
-0.000224917 
-0.00014386 
-0.000266784 
-0.000180819 
-1.60754e-05 
0.000197303 
0.000170779 
0.000201743 
0.000253501 
0.000268766 
0.000235936 
-0.000104091 
-6.59475e-05 
-1.99704e-05 
-1.59467e-05 
1.65477e-05 
-2.36357e-05 
1.63091e-05 
2.85115e-05 
8.8297e-05 
5.70321e-05 
1.13033e-05 
-3.80099e-05 
2.49537e-05 
-3.20384e-05 
0.00928398 
0.000484868 
0.00265758 
0.00772649 
0.00527156 
-0.005064 
-0.0011769 
0.00291853 
0.00663497 
0.00459373 
0.00200706 
-0.000819939 
-0.000387627 
0.00267093 
0.00175698 
0.00138849 
0.00419799 
0.00284887 
0.00311005 
0.00555864 
0.00493274 
-5.51506e-05 
0.000976546 
0.00120523 
0.00604061 
-0.000287438 
0.00507748 
0.00592582 
0.00743614 
-7.12923e-07 
1.35378e-05 
-0.000149944 
-0.000129843 
-9.49054e-05 
-0.000168292 
-0.000162424 
-0.000130045 
-0.000175107 
-0.000167835 
-0.000219273 
-0.000193578 
-0.000150264 
-0.000149837 
-2.02333e-05 
-9.40166e-05 
-0.000184466 
-0.000127835 
-0.000159166 
-0.000262559 
-0.000197638 
-0.000239545 
-0.000275873 
-0.000295091 
-0.000172736 
-0.000199784 
-0.000262747 
-0.000268559 
0.00249948 
-0.00233429 
0.00152657 
0.00162756 
-0.00322316 
-0.00196213 
0.000803491 
0.00158789 
-0.000280753 
-0.000517539 
-0.00298752 
-0.00217225 
0.00445654 
0.00321716 
-0.00144483 
-0.0108722 
-0.00106381 
-0.00202801 
-0.00314909 
-0.00595134 
-0.000254218 
-0.00120024 
-0.00104007 
-0.00266862 
0.000468737 
-0.000212768 
-3.69429e-05 
-9.13805e-05 
-0.000110452 
-7.37196e-05 
-4.42628e-06 
-2.70984e-05 
-4.78704e-05 
-7.47342e-06 
-3.68747e-05 
-3.00225e-05 
-1.80007e-05 
-2.79052e-05 
-6.77445e-05 
-8.27699e-05 
-3.01615e-05 
-4.72558e-05 
-0.000100118 
-2.3039e-05 
2.53854e-06 
-2.5818e-05 
-0.000138706 
6.79543e-05 
-1.57067e-05 
-1.5195e-05 
-1.97714e-05 
0.000193992 
-1.15121e-05 
3.03249e-05 
-2.52545e-05 
0.00480267 
-1.91394e-05 
-8.39835e-05 
-0.000102339 
ITEM: TIMESTEP
2600000
ITEM: NUMBER OF ATOMS
896
ITEM: BOX BOUNDS pp pp ff
-1.7153631884999999e+01 1.8003017117999999e+01
-1.7855467918999999e+01 1.7553981017000002e+01
-3.4618715923000003e+01 3.4618715923000003e+01
ITEM: ATOMS q 
-0.0108557 
-0.000155504 
0.00420216 
0.00561347 
0.00504707 
-7.99157e-06 
-8.29852e-05 
1.76645e-05 
-0.000308379 
-0.000143044 
-0.00869486 
-2.41635e-05 
-0.00395008 
0.00454108 
-0.000363216 
0.00245256 
9.0504e-05 
0.00922607 
-0.00556178 
-0.00335244 
0.000103128 
-0.000889146 
0.000159992 
-8.51766e-05 
-0.000160179 
0.0011203 
0.00806212 
-5.75193e-05 
0.00426756 
-0.00229392 
0.00858198 
0.00740023 
-0.00237708 
-0.00136222 
-0.000500285 
0.01446 
0.007027 
0.00573648 
0.0121633 
0.010396 
0.0102256 
0.0120553 
0.00729738 
0.00214988 
-0.000309017 
-0.0032344 
0.000359141 
0.00728149 
0.00734217 
0.0074756 
0.00640937 
0.00370855 
0.00550445 
0.00479904 
0.00172853 
-0.000199488 
-9.75437e-05 
-0.000124895 
-0.000175709 
-0.000497438 
-0.000310661 
-0.000308246 
-0.00036546 
-0.000493214 
-0.000453971 
-0.000391094 
-0.000287849 
-0.000168138 
-9.77581e-05 
-0.000128629 
-0.000302776 
-0.00025328 
-0.000202846 
-0.000228112 
-0.000269304 
-0.000248058 
0.00369289 
0.00577479 
0.00525132 
0.00476665 
0.00294998 
0.00215179 
0.00292218 
0.0059064 
-0.0130523 
-0.0023248 
0.00196865 
-0.00141175 
-0.00362807 
-0.0204275 
-0.0193512 
-0.000868445 
0.00396223 
0.0008205 
0.000566195 
0.00340784 
0.00317207 
0.000264162 
0.000687209 
-0.00146021 
0.0057982 
0.000361894 
-0.0102954 
-0.0074435 
0.00326559 
-0.000203148 
-0.00217048 
0.0037493 
-0.000303634 
-0.000313797 
-0.000267311 
-0.000193264 
-9.35101e-05 
-0.000191058 
-0.000182014 
-0.000107534 
0.000299579 
-1.34764e-05 
-4.19336e-05 
-1.97033e-05 
0.000252328 
0.000269211 
5.36568e-05 
-8.39309e-05 
-0.000165483 
-0.000184208 
-0.000233484 
-4.33424e-05 
-0.000110194 
-0.000160511 
1.21151e-05 
6.23153e-05 
2.21565e-05 
-0.000165505 
-3.13251e-05 
-3.23191e-05 
-0.000544251 
7.89098e-05 
0.00889125 
0.00220043 
0.00578346 
0.00301394 
0.000645049 
8.59265e-05 
0.00180794 
0.00512835 
0.00029553 
0.00377602 
0.00493379 
0.00134653 
0.00392429 
0.0074224 
0.000332923 
0.00409035 
0.00747747 
0.00466666 
0.0078202 
0.00299897 
0.00291454 
0.00521236 
0.00460134 
0.00667903 
0.0036036 
-0.000137689 
-0.000235946 
-0.000243163 
-0.000165577 
-0.000184624 
-0.000173811 
-0.000198321 
-0.000160403 
-0.000149282 
-0.0001758 
-0.000187007 
-0.000270311 
-0.000194361 
-0.000208948 
-0.000276268 
-0.000231348 
-0.000244691 
-0.000295339 
-0.000327209 
-0.000248515 
-0.000285482 
-0.000321535 
-0.000328931 
-0.000276215 
-0.000267445 
-0.000296856 
-0.000276397 
-4.232e-05 
0.00868273 
9.76718e-05 
-0.000286067 
0.000611425 
-6.29205e-05 
-0.00028285 
-0.000120574 
4.50652e-05 
-0.000192483 
-3.44044e-05 
0.00219534 
-0.00250217 
-0.0110449 
-0.000119957 
0.00831984 
-0.000262895 
0.0020281 
-0.0024685 
0.000297713 
8.02825e-06 
-2.60005e-05 
-0.000732388 
-0.000252648 
7.38402e-05 
0.0031203 
-0.000159596 
-0.00643133 
0.00591029 
0.000161135 
-0.000172034 
-0.000178119 
-0.00230536 
-2.84531e-06 
0.000118718 
-0.0031631 
0.00527132 
8.79871e-05 
-0.00178577 
-0.000229122 
-0.000279652 
-2.78965e-05 
-0.00019668 
-0.000304186 
3.06196e-06 
-5.64542e-05 