ITEM: TIMESTEP
2000000
ITEM: NUMBER OF ATOMS
896
ITEM: BOX BOUNDS pp pp ff
-1.7153631884999999e+01 1.8003017117999999e+01
-1.7855467918999999e+01 1.7553981017000002e+01
-3.4618715923000003e+01 3.4618715923000003e+01
ITEM: ATOMS q 
0 
0 
0 
0 
0 
0 
0 
0 
0 
0 
0 
0 
0 
0 
0 
0 
0 
0 
0 
0 
0 
0 
0 
0 
0 
0 
0 
0 
0 
0 
0 
0 
0 
0 
0 
0 
0 
0 
0 
0 
0 
0 
0 
0 
0 
0 
0 
0 
0 
0 
0 
0 
0 
0 
0 
0 
0 
0 
0 
0 
0 
0 
0 
0 
0 
0 
0 
0 
0 
0 
0 
0 
0 
0 
0 
0 
0 
0 
0 
0 
0 
0 
0 
0 
0 
0 
0 
0 
0 
0 
0 
0 
0 
0 
0 
0 
0 
0 
0 
0 
0 
0 
0 
0 
0 
0 
0 
0 
0 
0 
0 
0 
0 
0 
0 
0 
0 
0 
0 
0 
0 
0 
0 
0 
0 
0 
0 
0 
0 
0 
0 
0 
0 
0 
0 
0 
0 
0 
0 
0 
0 
0 
0 
0 
0 
0 
0 
0 
0 
0 
0 
0 
0 
0 
0 
0 
0 
0 
0 
0 
0 
0 
0 
0 
0 
0 
0 
0 
0 
0 
0 
0 
0 
0 
0 
0 
0 
0 
0 
0 
0 
0 
0 
0 
0 
0 
0 
0 
0 
0 
0 
0 
0 
0 
0 
0 
0 
0 
0 
0 
0 
0 
0 
0 
0 
0 
0 
0 
0 
0 
0 
0 
0 
0 
0 
0 
0 
0 
0 
0 
0 
0 
0 
0 
0 
0 
0 
0 
0 
0 
0 
0 
0 
0 
0 
0 
0 
0 
0 
0 
0 
0 
0 
0 
0 
0 
0 
0 
0 
0 
0 
0 
0 
0 
0 
0 
0 
0 
0 
0 
0 
0 
0 
0 
0 
0 
0 
0 
0 
0 
0 
0 
0 
0 
0 
0 
0 
0 
0 
0 
0 
0 
0 
0 
0 
0 
0 
0 
0 
0 
0 
0 
0 
0 
0 
0 
0 
0 
0 
0 
0 
0 
0 
0 
0 
0 
0 
0 
0 
0 
0 
0 
0 
0 
0 
0 
0 
0 
0 
0 
0 
0 
0 
0 
0 
0 
0 
0 
0 
0 
0 
0 
0 
0 
0 
0 
0 
0 
0 
0 
0 
0 
0 
0 
0 
0 
0 
0 
0 
0 
0 
0 
0 
0 
0 
0 
0 
0 
0 
0 
0 
0 
0 
0 
0 
0 
0 
0 
0 
0 
0 
0 
0 
0 
0 
0 
0 
0 
0 
0 
0 
0 
0 
0 
0 
0 
0 
0 
0 
0 
0 
0 
0 
0 
0 
0 
0 
0 
0 
0 
0 
0 
0 
0 
0 
0 
0 
0 
0 
0 
0 
0 
0 
0 
0 
0 
0 
0 
0 
0 
0 
0 
0 
0 
0 
0 
0 
0 
0 
0 
0 
0 
0 
0 
0 
0 
0 
0 
0 
0 
0 
0 
0 
0 
0 
0 
0 
0 
0 
0 
0 
0 
0 
0 
0 
0 
0 
0 
0 
0 
0 
0 
0 
0 
0 
0 
0 
0 
0 
0 
0 
0 
0 
0 
0 
0 
0 
0 
0 
0 
0 
0 
0 
0 
0 
0 
0 
0 
0 
0 
0 
0 
0 
0 
0 
0 
0 
0 
0 
0 
0 
0 
0 
0 
0 
0 
0 
0 
0 
0 
0 
0 
0 
0 
0 
0 
0 
0 
0 
0 
0 
0 
0 
0 
0 
0 
0 
0 
0 
0 
0 
0 
0 
0 
0 
0 
0 
0 
0 
0 
0 
0 
0 
0 
0 
0 
0 
0 
0 
0 
0 
0 
0 
0 
0 
0 
0 
0 
0 
0 
0 
0 
0 
0 
0 
0 
0 
0 
0 
0 
0 
0 
0 
0 
0 
0 
0 
0 
0 
0 
0 
0 
0 
0 
0 
0 
0 
0 
0 
0 
0 
0 
0 
0 
0 
0 
0 
0 
0 
0 
0 
0 
0 
0 
0 
0 
0 
0 
0 
0 
0 
0 
0 
0 
0 
0 
0 
0 
0 
0 
0 
0 
0 
0 
0 
0 
0 
0 
0 
0 
0 
0 
0 
0 
0 
0 
0 
0 
0 
0 
0 
0 
0 
0 
0 
0 
0 
0 
0 
0 
0 
0 
0 
0 
0 
0 
0 
0 
0 
0 
0 
0 
0 
0 
0 
0 
0 
0 
0 
0 
0 
0 
0 
0 
0 
0 
0 
0 
0 
0 
0 
0 
0 
0 
0 
0 
0 
0 
0 
0 
0 
0 
0 
0 
0 
0 
0 
0 
0 
0 
0 
0 
0 
0 
0 
0 
0 
0 
0 
0 
0 
0 
0 
0 
0 
0 
0 
0 
0 
0 
0 
0 
0 
0 
0 
0 
0 
0 
0 
0 
0 
0 
0 
0 
0 
0 
0 
0 
0 
0 
0 
0 
0 
0 
0 
0 
0 
0 
0 
0 
0 
0 
0 
0 
0 
0 
0 
0 
0 
0 
0 
0 
0 
0 
0 
0 
0 
0 
0 
0 
0 
0 
0 
0 
0 
0 
0 
0 
0 
0 
0 
0 
0 
0 
0 
0 
0 
0 
0 
0 
0 
0 
0 
0 
0 
0 
0 
0 
0 
0 
0 
0 
0 
0 
0 
0 
0 
0 
0 
0 
0 
0 
0 
0 
0 
0 
0 
0 
0 
0 
0 
0 
0 
0 
0 
0 
0 
0 
0 
0 
0 
0 
0 
0 
0 
0 
0 
0 
0 
0 
0 
0 
0 
0 
0 
0 
0 
0 
0 
0 
0 
0 
0 
0 
0 
0 
0 
0 
0 
0 
0 
0 
0 
0 
0 
0 
0 
0 
0 
0 
0 
0 
0 
0 
0 
0 
0 
0 
0 
0 
0 
0 
0 
0 
0 
0 
0 
0 
0 
0 
0 
0 
0 
0 
0 
0 
ITEM: TIMESTEP
2200000
ITEM: NUMBER OF ATOMS
896
ITEM: BOX BOUNDS pp pp ff
-1.7153631884999999e+01 1.8003017117999999e+01
-1.7855467918999999e+01 1.7553981017000002e+01
-3.4618715923000003e+01 3.4618715923000003e+01
ITEM: ATOMS q 
-4.53509e-06 
-6.83752e-05 
-4.77141e-05 
-3.03775e-05 
-0.000206214 
-0.000146373 
-6.39545e-05 
-6.74158e-05 
-0.000219791 
-0.000278619 
-0.000146742 
-0.000144244 
-0.000181593 
-0.000173065 
4.38589e-06 
-5.94134e-06 
-1.29059e-05 
0.000121394 
-2.74969e-05 
2.88059e-05 
0.000129325 
0.000170828 
-0.000156698 
-7.6871e-05 
2.90359e-05 
7.84235e-06 
-0.000183535 
-0.000132245 
-0.00498669 
0.00123483 
-0.00191505 
-0.00359844 
-0.0057867 
-0.00384685 
-0.00275134 
-0.000500263 
-0.00776271 
-0.00132149 
0.000782429 
0.0028348 
7.96957e-05 
0.00114256 
-0.00386065 
-0.0015113 
0.00114409 
-0.00310608 
-0.00525072 
-0.0120916 
0.00327936 
-0.00331707 
-0.0071907 
0.00227066 
-0.000105495 
-0.000187677 
-0.00021137 
-0.000130643 
-0.000140329 
-0.000205654 
-0.000248528 
-6.54199e-05 
-9.78287e-05 
-0.000195215 
-0.000170422 
-0.00029914 
-0.000234958 
-0.000157172 
-1.97627e-06 
-0.000217502 
-0.000108275 
-0.000301431 
-0.00025842 
-0.000191794 
-0.000158472 
-0.000149842 
-0.000236308 
-0.000177357 
-1.49575e-05 
0.000208888 
0.000110689 
0.000179023 
0.000329466 
0.00239555 
0.00139955 
0.00193794 
0.00219131 
0.00273935 
0.00676251 
-0.000763156 
0.00120153 
0.00521364 
0.00277324 
-0.0100081 
0.00226578 
0.00100565 
-0.00983036 
0.00142403 
0.00634189 
3.18317e-05 
-0.00157162 
0.00184311 
0.00443929 
-0.000968623 
-0.0230665 
-0.00580704 
-0.00457912 
0.000160017 
-3.81391e-05 
-0.000142461 
-9.68979e-05 
0.000252267 
0.000197499 
4.80713e-05 
5.86666e-05 
0.000204062 
0.000300533 
0.000272808 
0.000281247 
0.000201077 
0.00034003 
-0.00018017 
-0.000221824 
-0.00018226 
-9.43156e-05 
-0.00012371 
-0.000202601 
-0.00016554 
-0.000158585 
0.000139819 
-5.69123e-05 
-0.000148247 
-7.81268e-05 
0.000147243 
3.32925e-05 
-0.0121937 
-0.0121629 
-0.0028597 
-0.00793727 
0.00362702 
0.00313273 
0.0013893 
-0.00604143 
-0.00360387 
0.00545724 
0.00494701 
-0.0213073 
-0.011436 
-0.00533111 
-0.00811927 
-0.019 
-0.0124462 
-0.000681381 
0.00141064 
-0.000179982 
0.00576348 
0.00283565 
-0.000736985 
-0.000695484 
0.00299315 
0.00191285 
-0.00504095 
-0.00163652 
7.51477e-06 
0.000205765 
-2.98486e-05 
2.79583e-05 
8.0433e-05 
6.83529e-05 
2.89739e-05 
9.33459e-06 
6.52126e-05 
6.77796e-05 
0.000210896 
0.000110888 
8.7552e-05 
6.27867e-05 
0.000180933 
6.08336e-06 
7.18182e-05 
8.18895e-05 
2.51615e-05 
-9.20143e-05 
1.51235e-05 
-3.29949e-06 
-0.000109094 
-0.000168596 
-6.68355e-06 
-4.02595e-05 
-0.000112067 
-9.17937e-05 
-0.000394119 
-0.0052937 
0.000140215 
-0.00800148 
-0.00173812 
-0.00434287 
-0.00194523 
-0.00100723 
-0.00330331 
-0.00678722 
-0.00486831 
-0.00484708 
-0.00537654 
-0.00401252 
-0.00551564 
-0.00517671 
-0.00372952 
0.000250992 
-0.0079158 
-0.00311836 
-0.00303967 
-0.000854615 
-0.000931715 
0.00130435 
0.0062887 
-0.00177377 
0.00101265 
0.00185891 
8.54182e-05 
4.42802e-05 
0.000207905 
0.00023143 
-9.51166e-05 
8.66955e-05 
0.000159664 
-1.61123e-05 
-0.000133554 
-0.000145422 
-0.000150163 
-0.000152573 
-8.36497e-05 
-0.000104416 
0.000155619 
0.000155428 
7.52037e-05 
7.6993e-05 
1.45609e-05 
0.000107677 
0.00010409 
0.000121378 
-9.71586e-05 
-3.61859e-05 
8.33589e-05 
0.000134754 
-4.78828e-05 
4.42847e-05 
-1.65609e-06 
0.000140294 
0.000245007 
-0.00685543 
-0.000399867 
0.000993501 
-0.0198666 
-0.0140838 
-0.00774768 
-0.00709035 
0.000345425 
-0.00873133 
-0.00513851 
-0.00215438 
0.00190444 
0.00594594 
0.00240034 
0.00135954 
-0.000274553 
2.62754e-05 
-0.00598082 
-0.00809533 
-0.00328763 
-0.0019188 
-0.00334969 
-0.00544661 
-0.00444315 
-0.0048769 
-0.00162867 
-0.0032875 
-0.00830401 
-0.0168641 
-0.00295387 
-0.0113873 
-4.53812e-05 
-3.53302e-05 
-0.000125406 
-5.21309e-05 
-9.11004e-07 
3.82817e-05 
-0.000167792 
-0.000114828 
2.207e-06 
1.51306e-05 
-0.000116361 
-0.000124111 
-5.23519e-05 
-1.83941e-05 
-3.55482e-05 
-2.77925e-07 
6.73901e-05 
2.31498e-05 
-2.6893e-05 
-2.04915e-05 
8.7261e-05 
9.54204e-05 
8.0679e-05 
0.00016374 
1.82578e-05 
5.86075e-05 
0.000135371 
0.000116678 
-4.26576e-05 
-9.07928e-05 
0.000296728 
0.00028589 
-0.00273305 
0.00371915 
0.00302792 
0.00141274 
-0.00285163 
-0.00106857 
-0.00185242 
-0.0058937 
-0.00336673 
-0.00450819 
-0.00145131 
-0.00549181 
-0.00565343 
-0.00527558 
0.00223094 
-0.000570752 
-0.00495506 
-0.00418313 
-0.000592425 
0.00113916 
-0.00513773 
-0.00214489 
0.00220419 
0.00539112 
-0.00653416 
-0.00482054 
0.00203013 
-0.0145059 
9.85813e-05 
-0.00319164 
-0.0105327 
-0.0100547 
-8.95693e-05 
-0.00014979 
-7.77827e-05 
3.29573e-05 
9.45357e-06 
0.000154728 
0.000201843 
0.000228499 
0.000294652 
8.87537e-05 
9.4169e-05 
-4.45087e-05 
-6.76796e-05 
5.44552e-05 
0.000200711 
0.000191332 
8.06708e-05 
0.000168714 
0.000233926 
0.000432467 
0.000352837 
0.000283439 
0.000245393 
0.000255017 
0.000177931 
0.00107908 
0.00333324 
0.00142563 
0.00143523 
-0.00413297 
-0.0015406 
-0.00147746 
-0.00653593 
-0.00649047 
-0.00479455 
-0.0112239 
-0.0280589 
-0.000445886 
-0.00635038 
-0.00472167 
-0.00614869 
-0.00521783 
-0.0196856 
-0.00515266 
-0.00366185 
-0.0101927 
-0.0117441 
-0.0176683 
-0.0047109 
-0.00812601 
-0.0192247 
-0.00559229 
-0.00125636 
-5.02974e-06 
-0.000135942 
-0.000121267 
-4.39481e-05 
0.000148706 
0.000170581 
0.000401264 
0.000427538 
0.00057714 
0.000519298 
4.8909e-05 
-0.000102207 
-7.97555e-05 
-0.000101743 
-0.000149092 
-0.000213192 
0.000253689 
-8.1187e-07 
-6.33927e-05 
0.000159045 
0.000493943 
0.000378447 
0.000322103 
0.00041544 
0.00467314 
-0.00267223 
0.00167972 
0.00383266 
-0.00145944 
0.00138218 
-0.0213324 
-0.00508488 
-0.00161411 
-0.00505884 
-0.0177954 
-0.0242427 
-0.016288 
-0.0215679 
-0.00286815 
0.00291742 
0.00460348 
0.00307276 
0.00354176 
0.00390503 
-0.00278264 
0.0026994 
0.000539429 
-0.00882958 
-0.00982216 
-0.0102714 
-0.0140962 
-0.0342063 
-0.000345679 
-0.000424141 
-8.66056e-05 
2.65861e-05 
-7.07475e-05 
-0.000225575 
-7.1286e-05 
2.11182e-07 
0.000119908 
-0.00013192 
-3.24551e-05 
0.000139996 
-0.000113533 
-0.000103302 
6.79423e-05 
0.000145191 
0.000150029 
0.000297962 
0.000411356 
0.000322895 
5.56454e-05 
0.00012338 
0.000222937 
0.000284385 
0.000297159 
0.000215221 
0.000317229 
0.000402893 
0.000309841 
0.000389836 
0.00043834 
0.000321365 
-0.0122833 
-0.00337358 
-0.00554089 
-0.00562712 
-0.00835547 
-0.0020094 
-0.000409462 
-0.000127584 
-0.00905365 
-0.00122462 
-0.000539629 
-0.0111927 
-0.00730517 
-0.00477018 
-0.0109718 
-0.0116435 
-0.00948235 
-0.021011 
-0.00786942 
-0.000734579 
-0.00242917 
-0.00664344 
-0.0196483 
-0.00244407 
-0.0112847 
-0.0121559 
-0.0201194 
-0.00268962 
-0.000207737 
-0.000144155 
2.39504e-05 
0.000172376 
-0.000110191 
-1.00091e-05 
0.000189527 
0.000338407 
-0.000108335 
6.66688e-05 
0.000293132 
0.000182797 
0.000332189 
0.000368367 
0.000375047 
0.000372859 
0.000436922 
0.000469445 
0.000533862 
0.000309039 
0.000168434 
0.000315942 
0.000149925 
-4.35732e-05 
-0.00400802 
2.59041e-05 
-0.0035812 
-0.00104792 
-0.011382 
-0.00964068 
-0.0116862 
-0.0159227 
0.00206797 
-0.0193331 
-0.0216361 
-0.00266171 
-0.0160233 
-0.00979543 
-0.00582467 
-0.00552157 
-0.0302345 
-0.0201794 
-0.00339677 
-0.00349598 
-0.000912056 
0.000280098 
0.000216154 
0.000119945 
0.000160504 
0.000478759 
0.000379574 
0.000350026 
0.000436596 
0.000369905 
0.000503552 
0.000533804 
0.000256785 
0.000139254 
0.00021344 
0.000116177 
-8.67608e-05 
0.000125668 
2.38109e-05 
3.70104e-06 
1.57137e-05 
0.000283092 
0.000175167 
9.20163e-05 
6.78967e-05 
4.95372e-05 
0.000137336 
3.09808e-05 
-5.84065e-05 
-0.000186943 
-0.000152921 
-0.000167471 
-0.000252513 
-0.00579037 
-0.018982 
-0.00922893 
0.000468809 
-0.00471236 
-0.00383049 
-0.000952664 
-0.00481393 
-0.0202035 
-0.00611818 
-0.007092 
-0.0118825 
-0.0136643 
-0.026531 
-0.0113127 
0.00157549 
-0.00168204 
-0.00446731 
0.00134734 
0.00439848 
-0.00575903 
-0.00397283 
-0.0024693 
-0.00802558 
-0.00351491 
-0.000169667 
-0.00117037 
-0.000325876 
-0.00131785 
0.00392724 
0.00164852 
0.0019301 
0.000197422 
4.68773e-05 
-7.45296e-05 
-2.08628e-05 
0.000125697 
0.000133665 
2.66716e-05 
-4.09538e-05 
-0.000180277 
-0.000121777 
-0.000164051 
-0.000235822 
-9.67596e-05 
-0.000242205 
-0.00031729 
-0.000364132 
-0.000109099 
-0.00015624 
-0.000355455 
-0.000374787 
-0.000243575 
-0.000229819 
-0.000306857 
-0.000288397 
-0.00676139 
-0.00121911 
0.00659999 
0.00464241 
0.00146302 
0.00213634 
-0.00287778 
-0.000161953 
-0.00314741 
-0.0181056 
-0.00139585 
0.00772739 
0.00116643 
0.00187515 
0.0036047 
0.00645799 
0.00699847 
0.00174135 
0.00607741 
0.00473703 
0.00797979 
0.00228311 
0.00427937 
0.00551748 
-1.86794e-05 
-6.13777e-05 
-3.35242e-05 
-4.32888e-06 
2.01366e-05 
1.80917e-05 
1.62264e-05 
4.41329e-06 
3.32155e-06 
3.83067e-05 
4.18514e-05 
2.39003e-05 
-0.00018266 
-3.85631e-05 
5.73124e-06 
4.24699e-05 
-2.72394e-05 
-3.07488e-05 
-1.99901e-05 
-3.13252e-05 
-7.50244e-05 
-8.90587e-05 
-0.000107541 
-0.000149658 
-5.45695e-05 
-0.000120925 
-0.000197258 
-0.000192542 
2.41209e-05 
-8.28692e-05 
-0.000159327 
-0.000155056 
5.1864e-05 
-0.000113766 
-0.000219111 
-0.000209313 
-0.00193611 
-0.00252371 
-0.00695874 
0.00421111 
-0.00215113 
-0.00196472 
-0.00465265 
-0.00224001 
-0.00502198 
-0.00482716 
-0.00178658 
-0.000939882 
-0.00831722 
-0.00563774 
-0.00174939 
-0.00154809 
0.00281594 
-0.000984582 
-0.00460638 
-0.00252893 
-0.00190853 
0.0010264 
0.000714694 
-0.00388799 
0.00466526 
0.000129873 
-0.00164344 
-0.00177758 
0.00222765 
0.0053722 
5.80237e-05 
0.000518912 
0.0011798 
0.000260683 
0.000860608 
0.00141437 
-0.000321109 
-0.000176019 
4.25103e-06 
-5.58735e-05 
-0.00039023 
-0.00032567 
-0.000232007 
-0.000174081 
-0.000257416 
-0.000303572 
-0.000195707 
-2.67542e-05 
-8.97953e-06 
-3.02981e-06 
-0.00010784 
-9.70067e-05 
-3.57776e-05 
-4.159e-05 
-2.84558e-05 
1.22992e-05 
0.000109716 
7.4862e-05 
0.000102604 
3.10435e-05 
-8.72792e-05 
4.29219e-05 
-7.16345e-05 
0.00680843 
0.00804925 
0.00580848 
0.00400942 
-0.0135561 
-0.0134328 
-0.00156778 
0.00653925 
0.00498134 
0.000139846 
-0.00261042 
0.00091491 
0.00215908 
-0.001516 
-0.00461385 
-0.000703164 
0.000251362 
0.00100822 
4.88034e-05 
-0.00301826 
-0.000782771 
-0.0001216 
0.00149856 
-0.0166441 
-0.00987462 
-0.00179561 
-0.00131984 
0.000240055 
0.00034455 
0.000170526 
-9.96861e-06 
1.44371e-05 
-0.000115231 
-0.000195194 
-0.000224117 
-0.00027362 
-0.00025196 
-0.000293288 
-0.00025346 
0.000155682 
0.000307217 
0.000267932 
0.000197261 
-2.67385e-05 
8.9032e-05 
0.000158876 
0.000363091 
-0.000170876 
-2.76063e-06 
0.000286723 
0.000527274 
-0.000191048 
-0.000108012 
0.000135273 
0.00010847 
-0.00670062 
-0.00693714 
-0.010324 
-0.0024671 
-0.00149773 
-0.00250952 
-0.00138666 
-0.00217425 
0.00457282 
0.00514635 
0.0063997 
0.00624542 
0.00415112 
0.0060652 
0.00542871 
0.00127774 
-0.00166533 
-0.00220662 
-0.01372 
-0.0178861 
-0.00688517 
-0.00423171 
-0.00424129 
-0.0159169 
-0.00615133 
-0.00972821 
-0.0193076 
-0.0456706 
0.000784277 
-0.00294461 
-0.0132316 
-0.00908591 
-0.000159192 
-0.000167372 
-2.3658e-05 
4.00713e-05 
0.000117909 
0.000149844 
5.1191e-05 
0.000111324 
-2.36373e-05 
-5.17279e-05 
-0.000116621 
-6.52034e-05 
-0.000113059 
9.50986e-05 
1.92967e-05 
-4.75421e-05 
-0.000162746 
2.11282e-05 
6.35955e-05 
-6.32408e-05 
-0.000100457 
-0.00133779 
0.00200426 
0.00268998 
0.000315256 
-0.012901 
-0.0113151 
-0.00706773 
-0.00681363 
0.00306376 
-0.00882274 
-0.00800303 
-0.00770057 
-0.000418992 
-0.000131618 
-0.000713396 
-0.00607001 
-0.00180909 
-0.00264335 
-0.00115886 
0.00295932 
-0.00483068 
0.000725896 
0.00405464 
0.000819015 
ITEM: TIMESTEP
2400000
ITEM: NUMBER OF ATOMS
896
ITEM: BOX BOUNDS pp pp ff
-1.7153631884999999e+01 1.8003017117999999e+01
-1.7855467918999999e+01 1.7553981017000002e+01
-3.4618715923000003e+01 3.4618715923000003e+01
ITEM: ATOMS q 
8.20269e-05 
0.000103724 
8.1862e-05 
8.64422e-05 
-1.25541e-05 
7.71217e-06 
7.33341e-05 
8.93611e-05 
-7.53281e-05 
-3.91291e-05 
3.5471e-05 
4.73908e-05 
-4.8396e-05 
5.78868e-05 
0.000137595 
9.8734e-05 
0.00013825 
0.000362804 
0.000197066 
0.000246812 
0.000444099 
0.000673133 
0.000120708 
0.000241368 
0.000524939 
0.000458538 
0.000148886 
0.000199367 
-0.00134095 
-0.00522219 
-0.00301785 
-0.00235687 
-0.00536151 
-0.00347036 
-0.00414663 
-0.00275243 
-0.00274889 
-0.00248029 
-0.00205185 
-0.000340682 
0.000416802 
-0.000614191 
-0.00385553 
-0.00352684 
-0.00704263 
-0.00814191 
-0.0113181 
-0.0207082 
-0.00244296 
-0.013466 
-0.0362518 
-0.00059996 
-0.00175267 
-1.3247e-05 
0.000287725 
0.000121183 
9.54366e-05 
0.000399232 
0.000380633 
-2.59918e-06 
0.000125867 
0.000224975 
0.000143875 
-3.27432e-05 
1.17146e-05 
8.45157e-05 
0.000212288 
0.000262753 
0.00021308 
0.000348568 
0.000310686 
0.00022149 
0.000206953 
0.000174372 
0.000229041 
0.000189048 
0.000160018 
0.000236525 
0.000170028 
0.000188984 
0.00018085 
-0.00683947 
-0.00432053 
-0.0171649 
-0.0268615 
-0.0191322 
-0.00920951 
0.00447628 
-0.00829382 
-0.00910493 
-0.00166187 
-0.00649609 
6.83079e-05 
-0.00185661 
-0.00477959 
-0.00203666 
-0.00617437 
-0.00538966 
-0.00687047 
-0.00292774 
-0.0045973 
-0.00365484 
-0.00800225 
-0.0051101 
-0.00569787 
0.000385656 
0.000140641 
0.000135147 
0.000179381 
0.000726778 
0.000480362 
0.000257106 
0.000153376 
0.000534412 
0.000577399 
0.000259362 
0.00021971 
0.000355494 
0.000338036 
8.90439e-05 
3.07393e-05 
2.05012e-05 
2.20995e-05 
-1.59107e-05 
2.48872e-06 
-2.60189e-05 
-5.54796e-05 
0.000124612 
-8.66223e-07 
-2.45037e-05 
8.86606e-06 
0.000135794 
4.02544e-05 
-0.00901943 
-0.0259068 
-0.0144017 
-0.0072655 
-0.00657235 
-0.0133144 
-0.00453477 
-0.00932945 
-0.00453531 
-0.000530279 
0.00334294 
-0.00553632 
-0.00407349 
0.00424122 
-0.00411389 
-0.00795085 
-0.0120248 
-0.00201062 
-0.00668918 
-0.0029413 
0.00115734 
0.000250806 
-0.000554701 
-0.00279564 
-0.000125721 
0.00173597 
-0.00349416 
-0.00360938 
0.00028356 
0.000313732 
0.000191896 
0.000269217 
0.000320626 
0.000252651 
0.000146982 
0.000151182 
0.000174017 
0.000217841 
0.000115384 
0.000110119 
0.000128922 
0.000108435 
0.000224728 
-4.39548e-05 
0.000213249 
0.00015818 
-1.70362e-05 
1.33836e-05 
0.000379424 
0.000298287 
0.000265678 
0.00024997 
0.000143702 
0.000307064 
0.000255409 
9.77208e-05 
-0.00348882 
-0.00450433 
-0.00501094 
-0.00363164 
-0.0116861 
-0.00794149 
-0.00219879 
-0.0155393 
-0.00969449 
-0.00300434 
-0.00271806 
0.00115991 
-0.00559445 
-0.0185738 
-0.00283414 
-0.00286443 
-0.00113843 
-0.00269999 
0.00018535 
-0.00155719 
0.0036269 
0.00519855 
-0.0271294 
-0.0112855 
-0.000647664 
-0.00083003 
-0.00152078 
-0.000948868 
4.89e-05 
0.000125747 
0.000305118 
0.000329579 
-2.25358e-05 
4.50191e-05 
0.000185999 
0.000196359 
4.25804e-05 
5.72723e-05 
0.000133173 
0.000123913 
3.72027e-05 
7.5781e-05 
0.000477689 
0.000429114 
0.000389926 
0.000478962 
0.000268641 
0.00040104 
0.000447677 
0.0003798 
0.000105282 
0.000179491 
0.000227081 
0.000175953 
4.72565e-05 
6.46973e-05 
0.000504226 
0.000476221 
0.000308336 
-0.00113589 
0.00209081 
-0.000935232 
-0.00390538 
-0.006866 
-0.0169652 
-0.0213665 
0.00147042 
-0.00412196 
-0.00991424 
-0.00408752 
-0.009007 
-0.00571636 
-0.0050084 
-0.00279002 
-0.00848381 
-0.00394029 
-0.0135848 
-0.0107168 
-0.00762946 
-0.0193698 
-0.00606656 
-0.0077621 
-0.0152165 
-0.011314 
-0.00314494 
-0.00436153 
-0.00342019 
-0.00836887 
0.000809445 
-0.00443948 
-7.7115e-05 
2.09322e-06 
-3.2197e-05 
-7.58371e-05 
-2.37139e-05 
0.000201371 
0.000169355 
0.000175829 
0.000364422 
0.000324184 
1.42309e-05 
0.000119447 
0.000145665 
-2.2195e-05 
1.33797e-05 
7.53573e-05 
0.000216963 
4.75878e-05 
8.84445e-05 
0.000267016 
0.000309144 
0.000339677 
0.000342849 
0.000195472 
-0.000104585 
4.28486e-05 
-4.86085e-05 
-0.000221613 
0.000155806 
0.000230196 
0.000101769 
-0.000190613 
0.00110517 
0.00733302 
-0.00219126 
0.00117116 
0.00381098 
-0.000344094 
0.00269796 
0.00399878 
0.000694361 
0.00162995 
-0.0107019 
-0.0244306 
-0.0238738 
-0.00998771 
0.00137266 
-0.00719037 
-0.00544479 
0.00265076 
0.00218099 
-0.00255032 
-0.00168083 
-0.0011496 
-0.00185054 
-0.00549338 
-0.00419094 
-0.0172044 
-0.025451 
-0.00629379 
0.00842959 
0.000939209 
0.001811 
0.00822072 
0.000346884 
0.000298482 
0.000473285 
0.000539719 
0.000600422 
0.000661392 
0.000466124 
0.000608955 
0.000510948 
0.000268677 
0.000346731 
0.000445639 
0.000279401 
0.000275292 
0.000286734 
0.000609415 
0.000505973 
0.000345558 
0.000226031 
0.000454433 
0.000466765 
0.000252807 
0.00012749 
0.000245022 
0.000133576 
-0.0182884 
-0.00416768 
-0.00198995 
-0.0136558 
-0.0166568 
-0.0176696 
-0.00828829 
-0.0188402 
-0.0117903 
-0.0105946 
-0.0249762 
-0.0132378 
-0.0102673 
-0.00552238 
-0.0179105 
-0.0095057 
-0.00175417 
-0.0022081 
-0.0114604 
-0.00709466 
-0.00146654 
-0.00176221 
-0.00557036 
-0.00672384 
-0.000743187 
-0.00298919 
0.00217923 
-0.000594185 
0.000222025 
0.000146394 
0.000138489 
-3.27656e-05 
0.000141355 
-0.0001143 
-0.000221385 
-0.000117505 
-0.000178472 
-2.72283e-05 
0.000184335 
0.00021207 
-7.5755e-05 
5.18541e-05 
0.000136626 
0.000171583 
-0.000269966 
-0.000190967 
-8.44982e-05 
-0.000105467 
5.01244e-05 
-0.000135518 
-8.32574e-05 
5.13879e-05 
-0.00574046 
-0.00581915 
-0.00142104 
-0.00560313 
-0.00510344 
0.0017231 
0.00455447 
0.00432667 
0.00784011 
0.0094752 
0.00487443 
0.00527586 
0.0064969 
-0.00272461 
-0.000789649 
-0.0169438 
-0.000967421 
-0.00263107 
-0.0161533 
-0.0195193 
0.00609764 
0.00257367 
0.000127796 
0.00214653 
-0.00415281 
0.00241251 
0.000704686 
-0.00307835 
6.11885e-05 
0.000103102 
0.000312869 
0.000369444 
6.98608e-05 
0.000134034 
0.000309049 
0.00022355 
0.000128066 
0.000149591 
0.000177047 
0.000161662 
5.69836e-05 
0.0001175 
0.000127399 
9.75544e-05 
0.000319477 
0.000288818 
0.000224897 
0.000140517 
0.00018888 
0.000233555 
0.000148576 
5.67862e-05 
0.000154423 
0.000136066 
9.26753e-05 
8.28391e-05 
0.000237577 
0.000223503 
0.000193379 
0.00021227 
-0.0243212 
-0.012934 
-0.00888849 
-0.00970398 
-0.00488405 
-0.0118666 
-0.00694058 
-0.00293019 
-0.00369763 
-0.00484678 
-0.00352956 
-0.00307449 
0.00372538 
-0.00477143 
-0.004129 
-0.0133645 
-0.00756726 
-0.0084512 
-0.00263963 
-0.00335009 
-0.00470461 
-0.00235341 
-0.00422065 
-0.0032957 
-0.000859412 
-0.012571 
-0.00499015 
-0.00234084 
-5.07983e-05 
-4.14605e-05 
-5.10696e-05 
-2.69877e-05 
-3.80426e-05 
-7.55533e-05 
-5.73753e-05 
2.59566e-05 
7.49347e-05 
-2.84346e-05 
5.8227e-05 
7.06242e-05 
9.19591e-05 
0.000196475 
0.000230351 
0.000164412 
1.022e-05 
4.10443e-05 
6.70402e-05 
1.3437e-06 
1.9008e-05 
-5.49333e-06 
-4.85378e-05 
-2.55423e-05 
0.0113503 
0.00673967 
-0.00538479 
-0.00378058 
-0.0108377 
0.00284167 
-0.00139005 
-0.00167174 
-0.00641801 
-0.0072464 
-0.00146944 
-0.000816459 
-0.00454793 
-0.00695627 
-0.00381281 
0.000944883 
-0.000512528 
-0.0034329 
-5.16697e-05 
0.000666956 
0.000631748 
2.63482e-05 
4.22337e-05 
3.29936e-05 
2.48251e-05 
-2.77863e-05 
-5.14058e-05 
-6.741e-05 
-7.18864e-05 
1.98329e-05 
-4.70488e-05 
-7.73577e-05 
-1.19957e-05 
0.000163609 
7.67275e-05 
7.95232e-05 
0.000221539 
0.000172095 
0.000197292 
0.00018603 
0.000120742 
-2.8059e-05 
0.000127604 
0.000133108 
1.06106e-05 
6.86242e-06 
-2.46793e-05 
-4.44694e-06 
2.55858e-05 
0.000247648 
0.000137445 
0.000139047 
0.000260085 
-0.000237229 
0.000468923 
-0.000831217 
-0.00210989 
0.00133495 
0.00058476 
-0.00307659 
-0.00902337 
0.00254001 
0.00225351 
0.00158793 
0.000734687 
0.000961569 
0.00203622 
0.000419233 
-0.000904981 
-0.00447918 
-0.00177157 
-0.00176449 
-0.00473725 
-0.0200881 
-0.0081253 
0.000622322 
-0.000853457 
-0.00436279 
0.000616715 
-0.000687639 
0.000809988 
0.00121439 
-0.0102316 
-0.00273959 
-0.000757668 
0.000268194 
0.000293337 
0.000354207 
0.000311167 
3.55855e-05 
0.00020565 
0.000224726 
4.94988e-05 
-4.67654e-05 
-3.4186e-05 
-4.71848e-05 
-5.81393e-05 
0.000256095 
0.000332995 
0.000372457 
0.000223773 
6.85933e-06 
0.000113293 
7.32308e-05 
-3.09422e-05 
-1.1923e-05 
-3.45689e-05 
-4.76832e-05 
-2.5791e-05 
-0.00744622 
-0.00102725 
0.00018531 
-0.0191823 
-0.0143837 
-0.00825284 
-0.00625807 
-9.06763e-05 
-0.00755392 
-0.00386491 
0.000888851 
0.00282964 
0.000868044 
0.000597213 
-0.00508858 
-0.00779616 
-0.0209316 
-0.011485 
0.00337968 
-3.73551e-05 
-6.10882e-05 
-0.00656511 
0.00292769 
0.00154439 
-5.77312e-05 
-7.35051e-05 
-0.000126304 
-0.000149601 
4.06111e-05 
-1.11766e-05 
-4.39344e-05 
7.06862e-05 
9.22264e-05 
0.00013161 
0.000226949 
0.000176512 
0.00018355 
0.000154374 
0.000166623 
0.000127794 
-0.000200046 
-0.000258836 
-0.000311036 
-0.000219778 
-6.74832e-05 
-0.0002089 
-0.000202865 
-5.35172e-05 
9.39598e-05 
-1.98157e-05 
-2.39316e-05 
0.000320991 
0.000169494 
0.000150981 
0.000368435 
0.000567686 
2.04946e-05 
0.00019997 
0.000568471 
0.000728315 
0.00198341 
-0.00100045 
0.00161633 
-0.00486565 
0.005123 
0.00291485 
0.00200231 
0.00261011 
-0.00714297 
0.000786911 
0.00079701 
0.00141155 
-0.0120612 
-0.0160269 
-0.00565442 
-0.00292899 
-0.00231575 
-0.00470908 
-0.000876781 
-0.00170059 
0.0048451 
0.0116359 
0.00797757 
-0.00242561 
0.00708778 
0.00527352 
0.000691457 
-0.00176843 
0.00136917 
0.0049863 
0.000759159 
-0.0153891 
-0.00707173 
-0.00196285 
-0.0298258 
-0.0290247 
0.0001507 
0.00017414 
0.000127343 
0.000184386 
6.60564e-05 
0.000119708 
0.00020371 
0.000345009 
0.000102803 
0.000172032 
0.000369767 
0.00038937 
0.000267295 
0.000260793 
0.000417206 
0.000335592 
0.000356597 
0.000298304 
0.00023969 
0.000147644 
0.000402643 
0.000336479 
0.000184972 
0.000200968 
0.000260424 
3.47614e-05 
0.000119594 
-0.003146 
0.00174337 
-0.00329213 
-0.000220965 
-0.00152488 
-0.00442716 
-0.00734501 
-0.0067561 
-0.00399276 
-0.00660722 
-0.0102566 
-0.00717869 
-0.0185457 
-0.018439 
-0.0109873 
-0.0113801 
-0.013931 
-0.00917977 
-0.00507513 
-0.00443847 
-0.00335914 
-0.00269061 
-0.00141162 
-0.00772214 
-0.00391551 
-0.00265181 
-0.00511622 
-2.00689e-05 
0.000175593 
0.000463225 
0.000293183 
0.000576389 
0.000581006 
0.000477642 
0.000592869 
0.000567842 
0.000731181 
0.000652653 
0.000433007 
0.000482752 
0.000283178 
0.000241861 
0.000266837 
0.000484348 
0.000464105 
0.00030185 
0.000167527 
0.000397459 
0.000339485 
0.000166766 
4.63252e-05 
0.000201619 
0.000227633 
6.30807e-05 
-1.33437e-05 
-0.0136924 
-0.00483051 
-0.00923906 
-0.0155519 
-0.0113141 
-0.0258657 
-0.0165198 
-0.00879856 
-0.0209148 
-0.0131752 
-0.0121981 
-0.00979689 
-0.0181007 
-0.0231732 
-0.0125967 
-0.00166166 
-0.0146824 
-0.00940375 
-0.00396898 
-0.00800808 
-0.00606252 
-0.00702862 
-0.00373904 
-0.00102371 
-0.00462369 
-0.00414214 
-0.000376741 
0.00876569 
0.00179724 
-0.00383015 
-0.000400143 
0.00379858 
0.000469225 
0.000315277 
5.78087e-05 
4.38591e-05 
-3.09772e-05 
-7.4367e-05 
-3.64485e-06 
-6.01008e-05 
3.55938e-05 
1.27961e-05 
4.37234e-05 
-1.35467e-05 
-8.44963e-06 
-6.78775e-06 
4.14694e-06 
4.09415e-05 
0.00011768 
5.38614e-05 
4.06759e-05 
0.000128822 
0.000172299 
-0.00150185 
-0.00478127 
-0.00379697 
0.000522592 
0.00285389 
0.00349337 
0.00306107 
-0.00252908 
-0.00230093 
0.00394379 
0.00182766 
0.001709 
-0.000729041 
-0.000390823 
-0.00111253 
0.000133292 
-0.00567368 
-0.00117646 
-0.00263516 
-0.00610649 
-0.00609235 
-0.0076992 
-0.00782146 
-0.00365273 
ITEM: TIMESTEP
2600000
ITEM: NUMBER OF ATOMS
896
ITEM: BOX BOUNDS pp pp ff
-1.7153631884999999e+01 1.8003017117999999e+01
-1.7855467918999999e+01 1.7553981017000002e+01
-3.4618715923000003e+01 3.4618715923000003e+01
ITEM: ATOMS q 
-0.000456589 
-0.000415084 
-8.50296e-05 
-5.76594e-06 
-0.000321189 
-0.000255963 
-0.000122533 
-0.000111135 
-9.89735e-05 
-0.000183513 
-0.000138628 
-0.000175936 
-0.00012285 
-0.000176717 
4.70832e-05 
-6.19147e-05 
-5.51674e-05 
0.000100078 
-0.000126205 
-3.5062e-05 
4.46155e-05 
-5.95947e-05 
-0.000248283 
-0.000229965 
-0.000261769 
-0.000315847 
-0.000291634 
-0.000329282 
-0.00622684 
-0.0075972 
-0.0153227 
-0.00920532 
-0.00697049 
0.00150053 
0.00111746 
0.000170307 
-0.00333845 
-0.00289896 
-0.00166632 
0.00119766 
0.00137299 
0.00282723 
-0.00733697 
-0.00807922 
0.00210648 
0.00190635 
-0.00130749 
-0.0178441 
0.00619047 
0.00343367 
0.00526611 
0.0081518 
0.00288568 
-5.18091e-05 
-0.000130159 
4.59583e-05 
-6.64149e-05 
-3.73998e-05 
6.90301e-05 
0.00010851 
3.70542e-05 
9.9898e-05 
6.21531e-05 
0.000156813 
-5.17287e-05 
-8.30675e-06 
4.7809e-05 
-0.000188352 
-0.000242234 
5.5511e-05 
-0.000109169 
-0.000157083 
-0.000114733 
2.01701e-05 
1.71696e-05 
-9.29693e-05 
-0.000103662 
-7.2093e-06 
-6.92385e-05 
-0.000109432 
-0.000112948 
0.000101007 
0.00376284 
-0.00687873 
-0.00440073 
-0.00343475 
-0.0104613 
-0.00049649 
-0.010013 
-0.013998 
-0.000435078 
-0.0105413 
-0.00440539 
-0.00205664 
-0.00267028 
0.00217855 
-0.00199122 
-0.000518638 
0.000333105 
0.000349767 
0.000220665 
0.00023227 
0.000438227 
0.00116008 
-0.00130679 
0.00013954 
6.20138e-05 
0.000253094 
0.000237527 
-2.64244e-05 
9.11022e-05 
4.50917e-05 
-0.000121496 
-0.000258321 
-0.000175772 
-0.000204161 
-0.000193971 
-0.00017759 
-9.83704e-05 
0.000280623 
0.000243757 
2.23297e-05 
-2.97186e-05 
-0.000178804 
1.78782e-05 
-6.29554e-05 
-9.49506e-05 
-0.000170872 
-0.000218496 
-9.83337e-05 
8.5666e-05 
1.39192e-05 
0.000143117 
-0.00851038 
-0.00483198 
0.00399064 
-0.00720467 
-0.00661536 
-0.0287031 
-0.023901 
6.22772e-05 
-0.00561953 
-0.00244299 
0.00906241 
0.000741182 
0.00381675 
0.00575668 
0.00211826 
-0.00454915 
-0.00141685 
-0.00523369 
-0.00554428 
-0.00230008 
0.00211527 
8.06374e-06 
0.000909271 
0.00142924 
0.00137987 
-0.00393567 
-0.00802563 
-0.0102878 
-0.000162353 
-4.51066e-05 
-0.000133886 
-0.000108969 
-6.0533e-05 
-6.82315e-05 
-6.04044e-05 
-8.24882e-05 
-6.56448e-05 
2.58298e-05 
-4.79173e-05 
-3.75193e-08 
8.62935e-05 
0.000226535 
4.25823e-05 
0.000298693 
6.63345e-07 
0.000121658 
0.000283248 
0.000142811 
1.75634e-05 
-4.57049e-06 
-1.7263e-05 
-0.000124504 
0.000231138 
5.99398e-05 
-6.30379e-05 
-4.33708e-05 
-0.00103199 
-0.00023612 
-0.00373272 
-0.000978408 
-0.00577762 
-0.00254712 
0.000127765 
-0.00233872 
-0.00228724 
-0.00137384 
-0.00515727 
0.000489584 
-0.000598796 
-0.00377131 
-0.00420204 
-0.00605332 
-0.0061733 
-0.0114937 
-0.010514 
-0.00271808 
-0.0188251 
-0.020178 
-0.00453944 
-0.00136189 
0.00149346 
-0.00442135 
0.000473648 
0.00473066 
-0.000110001 
-8.90185e-05 
-8.49434e-05 
-0.000101594 
-1.89445e-05 
-7.06541e-05 
-7.53282e-05 
-2.99081e-05 
0.000235574 
0.000137894 
0.000141546 
8.44187e-05 
0.000278687 
0.000148345 
-0.000144678 
-0.000186533 
-0.000224466 
-0.000146499 
-9.51665e-05 
-0.000145834 
-0.000119623 
-7.07828e-05 
-7.60226e-05 
-7.93813e-05 
-6.81315e-05 
-0.000118425 
-0.000151543 
-0.000190332 
-6.70512e-05 
-7.54329e-05 