LAMMPS (3 Mar 2020)
units               real
dimension           3
newton              off
#processors         * * *
boundary            p p f
atom_style          full  #mpirun -np 8 ./lmp_mpi -in KOHionicInput

##force field         sudo ln -s /lib/x86_64-linux-gnu/libc.so.6 /lib64/libc.so.6
pair_style          lj/cut/coul/long 12.0
pair_modify mix arithmetic tail yes
dihedral_style      opls                    #echo 0 > /proc/sys/kernel/yama/ptrace_scope
special_bonds lj/coul 0.0 0.0 0.5
bond_style          harmonic
angle_style         harmonic
kspace_style        pppm 1.0e-6
kspace_modify       slab 3.0


##atom definition
read_restart        KOH1V.2000000
  restoring atom style full from restart
  orthogonal box = (-17.1536 -17.8555 -34.6187) to (18.003 17.554 34.6187)
  2 by 2 by 2 MPI processor grid
  restoring pair style lj/cut/coul/long from restart
  restoring bond style harmonic from restart
  restoring angle style harmonic from restart
  restoring dihedral style opls from restart
  9487 atoms
  5085 bonds
  2520 angles
  2 = max # of 1-2 neighbors
  1 = max # of 1-3 neighbors
  1 = max # of 1-4 neighbors
  2 = max # of special neighbors
  special bonds CPU = 0.000742117 secs
  read_restart CPU = 0.0160317 secs
#read_data           1mkohdata.lmp
include             KOHpair.lmp
pair_coeff    1    1      0.076482     3.130000  # K K
pair_coeff    1    2      0.000000     0.000000  # K Hw
pair_coeff    1    3      0.109029     3.147700  # K Ow
pair_coeff    2    2      0.000000     0.000000  # Hw Hw
pair_coeff    2    3      0.000000     0.000000  # Hw Ow
pair_coeff    3    3      0.155425     3.165500  # Ow Ow
pair_coeff    4    4      0.086000     3.400000


##setting
neighbor            2 bin
neigh_modify delay 0 every 1 check yes
group ele type 4
1792 atoms in group ele
group sol type 1 2 3
7695 atoms in group sol

group elec2 molecule 3002
896 atoms in group elec2
group elec1 molecule 3001
896 atoms in group elec1
group K type 1
45 atoms in group K
group OH id 7606:7694:2
45 atoms in group OH
group water id 47:7604:3
2520 atoms in group water

#minimize 1.0e-4 1.0e-6 100 1000
#reset_timestep 0

fix SHAKE sol shake 0.0001 20 0 b 1
  45 = # of size 2 clusters
  2520 = # of size 3 clusters
  0 = # of size 4 clusters
  0 = # of frozen angles
  find clusters CPU = 0.000565156 secs

compute 2 elec2 property/atom q
compute 4 elec2 reduce sum c_2
#variable chargeDensity1 equal c_4*0.0009765625

compute 3 elec1 property/atom q
compute 5 elec1 reduce sum c_3
#variable chargeDensity2 equal c_5*0.0009765625

#compute 1 sol temp

compute Kden K chunk/atom bin/1d z lower 1.0
fix DENSITYFIXK K ave/chunk 2 5 500000 Kden density/number file Kdesnity06V

compute OHden OH chunk/atom bin/1d z lower 1.0
fix DENSITYFIXOH OH ave/chunk 2 5 500000 OHden density/number file OHdesnity06V

compute waterden water chunk/atom bin/1d z lower 1.0
fix DENSITYFIXwater water ave/chunk 2 5 500000 waterden density/number file waterdesnity06V


#compute displacementSCN SCN displace/atom
#compute averageDisplacementSCN SCN reduce ave c_displacementSCN[3]
#variable perpendicularDisplacementSCN equal c_averageDisplacementSCN/150

#compute displacementC4C1im C4C1im displace/atom
#compute averageDisplacementC4C1im C4C1im reduce ave c_displacementC4C1im[3]
#variable perpendicularDisplacementC4C1im equal c_averageDisplacementC4C1im/150




dump 1 elec2 custom 200000 elec206 q
dump_modify 1 flush yes
dump 2 elec1 custom 200000 elec106 q  #ele
dump_modify 2 flush yes
dump 4 all custom 200000 ionicTraj_nvt.lammpstrjTEST06V id mol type x y z q
dump_modify 4 flush yes
#dump 2 all xyz 500 lmp.xyz
#dump 4a all custom 500 wer id type x y z q



thermo_style        custom step c_4 c_5
thermo_modify flush yes
#thermo_style         custom step temp
thermo              1000
restart 500000 KOH06V  #10000

##run


run_style           verlet
#timestep            0.001
velocity ele set 0.0 0.0 0.0
fix 0 ele setforce 0.0 0.0 0.0
#fix 1 sol nvt temp 320.0 320.0 100.0  #298
#run 60000
#unfix 1
#reset_timestep 0
timestep            1.5
#fix 2 sol nvt temp 320.0 300.0 100.0  #298
#run 2000000 upto start 0 stop 2000000
#write_restart KOHrestart
#fix e1 all conp 1 1.979 801 802 -1.5 1.5 inv iter #0.5 1.979
#run 10000
#unfix 2
#reset_timestep 0
#timestep            1.0
fix 3 sol nvt temp 300.0 300.0 100.0
fix e1 all conp 1 1.979 3001 3002 -0.3 0.3 inv iter #0.5 1.979
run 5333334 upto start 0 stop 5333334
PPPM initialization ...
  using 12-bit tables for long-range coulomb (../kspace.cpp:332)
  G vector (1/distance) = 0.280035
  grid = 45 45 150
  stencil order = 5
  estimated absolute RMS force accuracy = 0.000332382
  estimated relative force accuracy = 1.00096e-06
  using double precision KISS FFT
  3d grid and FFT values/proc = 115200 66125
WARNING: Using pair tail corrections with non-periodic system (../pair.cpp:206)
Unused restart file global fix info:
  fix style: nvt, fix ID: 2
Neighbor list info ...
  update every 1 steps, delay 0 steps, check yes
  max neighbors/atom: 2000, page size: 100000
  master list distance cutoff = 14
  ghost atom cutoff = 14
  binsize = 7, bins = 6 6 10
  1 neighbor lists, perpetual/occasional/extra = 1 0 0
  (1) pair lj/cut/coul/long, perpetual
      attributes: half, newton off
      pair build: half/bin/newtoff
      stencil: half/bin/3d/newtoff
      bin: standard
Per MPI rank memory allocation (min/avg/max) = 20.22 | 23.16 | 26.27 Mbytes
Step c_4 c_5 
 2000000            0            0 
 2001000    0.7332163  -0.90446716 
 2002000    1.0776033   -1.1287074 
 2003000    1.5109167   -1.6509686 
 2004000   0.94564681   -1.1347534 
 2005000   0.78191475  -0.91992286 
 2006000   0.85292138  -0.87749909 
 2007000   0.90866098      -1.0448 
 2008000    1.3872119   -1.4866411 
 2009000    1.6148838   -1.6436911 
 2010000    1.3184655   -1.5217255 
 2011000    1.3327614   -1.5556613 
 2012000    1.8775936   -2.0414574 
 2013000    1.5007176   -1.5973203 
 2014000    1.0096599   -1.2051119 
 2015000    1.0316316   -1.1728437 
 2016000    1.1147281   -1.3063095 
 2017000    1.1896075   -1.2758278 
 2018000    1.2668561   -1.2907304 
 2019000     1.252241    -1.258642 
 2020000    1.0879907   -1.2278394 
 2021000    1.2199126   -1.3154562 
 2022000    1.0175954   -1.1968923 
 2023000      1.15951    -1.284143 
 2024000    1.2663801   -1.3622375 
 2025000    1.1073056   -1.2605603 
 2026000    1.1675314   -1.2837841 
 2027000    1.3204814   -1.4028979 
 2028000    1.0442678   -1.1762031 
 2029000     1.542749    -1.728712 
 2030000    1.8441921    -1.968172 
 2031000    1.4814504   -1.6283221 
 2032000    1.6360023   -1.7794982 
 2033000    1.4439321   -1.6121991 
 2034000    1.6267267   -1.8395472 
 2035000    1.5433433   -1.6540833 
 2036000    1.4911653   -1.5893715 
 2037000    1.3225681   -1.4499965 
 2038000    1.1614983   -1.2748021 
 2039000    1.1938862   -1.3245889 
 2040000    1.1820259   -1.3145002 
 2041000    1.3945756    -1.514261 
 2042000    1.1609325   -1.3607014 
 2043000    1.0485196   -1.0902201 
 2044000    1.3232642   -1.4104001 
 2045000    1.2481722   -1.3908442 
 2046000    1.0314182    -1.165779 
 2047000   0.93349053   -1.0656765 
 2048000     1.388989   -1.5078617 
 2049000    1.3625538   -1.4671004 
 2050000    1.4046054   -1.5434432 
 2051000    1.3183989   -1.4646674 
 2052000    1.2432841    -1.352609 
 2053000    1.2014034   -1.3364171 
 2054000    1.1984337    -1.341417 
 2055000    1.0935181   -1.2086857 
 2056000    1.3013312     -1.41706 
 2057000    1.4847667   -1.6049478 
 2058000    1.5436768   -1.6762456 
 2059000    1.5465423   -1.7243653 
 2060000    1.4518682   -1.5837551 
 2061000    1.3771799   -1.4547347 
 2062000    1.3780918   -1.4884024 
 2063000    1.4446342   -1.5156948 
 2064000    1.3667362   -1.4529486 
 2065000    1.5615175    -1.665137 
 2066000    1.3412209   -1.5450355 
 2067000    1.6112049   -1.7300033 
 2068000    1.4666117   -1.6330884 
 2069000    1.4383105   -1.5654416 
 2070000    1.5446066   -1.6778178 
 2071000    1.6252636   -1.7260664 
 2072000    1.6663343   -1.7591635 
 2073000    1.3703339   -1.4478903 
 2074000    1.5601272   -1.6717025 
 2075000    1.5337472   -1.6515137 
 2076000    1.4807383   -1.5806366 
 2077000    1.7461952   -1.7417854 
 2078000    1.6886611   -1.9416557 
 2079000    1.3250289   -1.4391893 
 2080000    1.1323109   -1.2833052 
 2081000    1.6342787   -1.7905545 
 2082000    1.6310749   -1.7206031 
 2083000    1.3463488   -1.4539773 
 2084000    1.5703392   -1.7478459 
 2085000    1.6644584   -1.7057035 
 2086000    1.3266318   -1.4073024 
 2087000     1.440596   -1.5250582 
 2088000    1.5360054   -1.6349445 
 2089000    1.4031196   -1.4570754 
 2090000    1.1729952   -1.2592359 
 2091000    1.5025673   -1.5600852 
 2092000    1.3589978   -1.4093576 
 2093000    1.4169262   -1.4817636 
 2094000    1.3785134   -1.5214739 
 2095000    1.1719695   -1.3170169 
 2096000    1.5535033   -1.6478432 
 2097000    1.5301143    -1.635086 
 2098000    1.5503403   -1.6748489 
 2099000    1.5901342   -1.6441966 
 2100000    1.8255445    -1.961837 
 2101000    1.5895336   -1.6157997 
 2102000    1.5927272   -1.6560537 
 2103000    1.6814958   -1.8018099 
 2104000    1.3298652   -1.4200543 
 2105000    1.2755217   -1.3872473 
 2106000   0.99869529   -1.1561073 
 2107000    1.6132948   -1.7402254 
 2108000    1.8582774   -1.9632084 
 2109000    2.0131677   -2.2908909 
 2110000    1.9159902   -2.0719812 
 2111000    1.4773681   -1.5921924 
 2112000    1.2317411   -1.2708726 
 2113000    1.2141265   -1.3409961 
 2114000    1.3807192   -1.5786122 
 2115000     1.445042   -1.4916628 
 2116000    1.3774387   -1.4988644 
 2117000    1.6187871   -1.7471802 
 2118000    1.5159043   -1.6508092 
 2119000    1.3315831   -1.4269932 
 2120000    1.4428804   -1.5891271 
 2121000     1.082328   -1.1583459 
 2122000    1.5720806   -1.6657326 
 2123000     1.128679   -1.2743757 
 2124000   0.94546367  -0.93430878 
 2125000    1.0759849   -1.1319544 
 2126000    1.3433992   -1.3766353 
 2127000    1.4040224   -1.3846365 
 2128000    1.2960168   -1.4335274 
 2129000    1.5450933   -1.6634277 
 2130000    1.5237689   -1.6326336 
 2131000    1.6308207   -1.7736652 
 2132000    1.4473349   -1.5877684 
 2133000    2.0789663   -2.1597413 
 2134000    1.5357923   -1.6270057 
 2135000    1.6455109    -1.772714 
 2136000    1.1801238   -1.3658935 
 2137000   0.95947612   -1.0510323 
 2138000     1.360168   -1.4435322 
 2139000    1.0631436    -1.075052 
 2140000     1.227565   -1.2841592 
 2141000     1.659293   -1.8143446 
 2142000     1.253797   -1.3528224 
 2143000   0.94632156   -1.0866474 
 2144000   0.98938787   -1.0433441 
 2145000    1.0388707   -1.1298793 
 2146000    1.2017454   -1.3391756 
 2147000    1.0620092   -1.1866812 
 2148000    1.4166894   -1.5229474 
 2149000    1.6845596   -1.8177627 
 2150000    1.5297083   -1.5469558 
 2151000    1.7253662   -1.8828804 
 2152000    1.4327203   -1.6033777 
 2153000    1.3825646   -1.5632898 
 2154000    1.2206837   -1.3433138 
 2155000    1.5161236   -1.6493358 
 2156000     1.583056   -1.7157532 
 2157000    1.3750342   -1.5882673 
 2158000    1.8056909    -1.918926 
 2159000     1.453534   -1.5380103 
 2160000    1.6178043   -1.7238474 
 2161000    1.7665882   -1.8037651 
 2162000    1.4275608   -1.5400409 
 2163000    1.2463461   -1.3312915 
 2164000    1.2487919   -1.3494827 
 2165000    1.1038664   -1.2359776 
 2166000    1.1976021   -1.2657519 
 2167000    1.3407231   -1.4925694 
 2168000    1.0266863   -1.1360166 
 2169000   0.98578038   -1.1361673 
 2170000    1.1985088   -1.3487833 
 2171000    1.1956767   -1.2428451 
 2172000    1.3031637   -1.2937945 
 2173000    1.4738571   -1.6051954 
 2174000    1.2604941   -1.3867854 
 2175000    1.2636916   -1.2973891 
 2176000    1.6871938   -1.7738642 
 2177000    1.4346509   -1.5367859 
 2178000   0.98643163   -1.1304897 
 2179000    1.3442828   -1.3996181 
 2180000    1.1416435   -1.2149346 
 2181000    1.1320168    -1.287177 
 2182000    1.3057592   -1.4410781 
 2183000    1.4457251    -1.547249 
 2184000     1.751405   -1.8176209 
 2185000    1.5217664   -1.6472173 
 2186000    1.5036337    -1.588706 
 2187000    1.5586562    -1.648594 
 2188000    1.4893395    -1.556702 
 2189000    1.3057649   -1.4508899 
 2190000    1.0962315   -1.2089519 
 2191000    1.2563877   -1.3744153 
 2192000    1.1020077   -1.2720001 
 2193000   0.96394763   -1.1167659 
 2194000    1.2250149   -1.3333133 
 2195000    1.4485447   -1.5367307 
 2196000    1.6582226   -1.7512874 
 2197000    1.6285225   -1.8103345 
 2198000     1.192178   -1.2703175 
 2199000    1.3708346   -1.5645689 
 2200000    1.2292621   -1.2772505 
 2201000    1.3358117   -1.4708962 
 2202000    1.0534397   -1.2193284 
 2203000    1.2112859   -1.3783895 
 2204000    1.4148734   -1.5737928 
 2205000    1.6545951   -1.7335037 
 2206000    1.5793895   -1.6698686 
 2207000    1.6269425   -1.7379873 
 2208000    1.7937942   -1.8505492 
 2209000    1.4418363   -1.6532437 
 2210000    1.1894345   -1.3713262 
 2211000    1.1585864   -1.3619735 
 2212000    1.5632099   -1.7291433 
 2213000      1.73886   -1.7944327 
 2214000     1.883999   -1.9460805 
 2215000    1.5269704   -1.6041604 
 2216000    1.8722671   -1.9268714 
 2217000    1.6223504   -1.8370708 
 2218000     1.345816   -1.4090786 
 2219000    1.2587628   -1.3885282 
 2220000    1.3577669   -1.4154831 
 2221000    1.5533109   -1.6372314 
 2222000    1.5019264   -1.5839982 
 2223000     1.185704   -1.2607811 
 2224000    1.3388409   -1.4761631 
 2225000    1.6676553   -1.7654273 
 2226000    1.3366724   -1.5205455 
 2227000    1.4252633   -1.5114978 
 2228000    1.5497463   -1.6539304 
 2229000    1.4482298   -1.5364778 
 2230000     1.764112   -1.8245511 
 2231000    1.3601396   -1.4050288 
 2232000    1.4229405    -1.439403 
 2233000   0.89487786   -1.0866509 
 2234000    1.5562232   -1.5965121 
 2235000    1.2433611   -1.4926866 
 2236000    1.4140753   -1.5001252 
 2237000    1.4217308   -1.4972941 
 2238000    1.6013532   -1.7685746 
 2239000    1.5603365     -1.70953 
 2240000    1.6427722   -1.7733629 
 2241000    1.4331848   -1.5821431 
 2242000    1.2580116   -1.4555586 
 2243000    1.5883584   -1.6646908 
 2244000     1.423382   -1.5126579 
 2245000    1.5438689   -1.5993786 
 2246000    1.2448622   -1.3740854 
 2247000    1.1224612   -1.1828913 
 2248000    1.0567646   -1.1643535 
 2249000    1.4549047   -1.5410233 
 2250000    1.1835265   -1.2856733 
 2251000    1.0407425   -1.1539446 
 2252000    1.1876663   -1.2484103 
 2253000    1.5582334   -1.6266873 
 2254000    1.5289345   -1.5873641 
 2255000    1.4399829   -1.5810426 
 2256000    1.5076209   -1.7590614 
 2257000    1.3907547   -1.5313264 
 2258000    1.2650604   -1.3797162 
 2259000    1.4347274   -1.4833072 
 2260000    1.3152129   -1.4294166 
 2261000    1.1314634   -1.2156216 
 2262000    1.4310854   -1.5641968 
 2263000      1.55047   -1.6648927 
 2264000     1.352375   -1.5707811 
 2265000    1.4602482   -1.6497607 
 2266000    1.3485979   -1.4939528 
 2267000    1.4092195   -1.5447178 
 2268000    1.4606951   -1.5767975 
 2269000    1.6056745   -1.6761825 
 2270000    1.3923089   -1.4726023 
 2271000     1.289683   -1.3952202 
 2272000    1.3100517   -1.4482286 
 2273000    1.6476846    -1.788551 
 2274000    1.6929307   -1.7073031 
 2275000     1.756593   -1.8659225 
 2276000    1.5792541   -1.7415568 
 2277000    1.5137459   -1.5951264 
 2278000    1.3943789   -1.4678549 
 2279000   0.93685334   -1.0481645 
 2280000    1.1146288   -1.2071524 
 2281000   0.98145584   -1.1417817 
 2282000    1.0809529   -1.2135582 
 2283000    1.3612079   -1.4204288 
 2284000    1.2444074   -1.3300298 
 2285000    1.0051141    -1.158449 
 2286000    1.4555708   -1.5747078 
 2287000    1.3736353   -1.4379334 
 2288000     1.588515   -1.6657395 
 2289000    1.5405898   -1.6500517 
 2290000    1.1924106    -1.311906 
 2291000    1.3947192   -1.4161163 
 2292000    1.2227972   -1.3424639 
 2293000    1.4128629   -1.4947742 
 2294000    1.5904874   -1.6768973 
 2295000    1.1667715   -1.2999383 
 2296000    1.1142366   -1.2321839 
 2297000    1.2993325    -1.446871 
 2298000    1.1655432    -1.301256 
 2299000    1.4119649   -1.4957139 
 2300000    1.2491466   -1.4245851 
 2301000    1.5626414   -1.6936524 
 2302000    1.2423321   -1.4165282 
 2303000    1.4342733   -1.5083496 
 2304000    1.6554262   -1.7200378 
 2305000    1.3444059   -1.4787847 
 2306000   0.99048938   -1.1406707 
 2307000    1.2858788   -1.4179885 
 2308000    1.0886615   -1.2370143 
 2309000   0.85969363  -0.93255149 
 2310000   0.89359707  -0.98731871 
 2311000    1.1042465    -1.221386 
 2312000    1.1851141   -1.2447033 
 2313000    1.5366639   -1.6010505 
 2314000    1.2954225    -1.430513 
 2315000     1.191698   -1.2961365 
 2316000    1.1734247   -1.3575229 
 2317000     1.062629   -1.1304503 
 2318000    1.2964417   -1.4478501 
 2319000    1.3576017   -1.5207158 
 2320000    1.2298153   -1.3956394 
 2321000     1.433377   -1.5243695 
 2322000    1.1786174    -1.331681 
 2323000    1.7043978   -1.8128813 
 2324000    1.3718806   -1.5069456 
 2325000    1.7305649   -1.8939689 
 2326000    1.5702744   -1.6714381 
 2327000    1.3096276   -1.4574227 
 2328000    1.4524945   -1.5734172 
 2329000    1.5345174   -1.5940717 
 2330000    1.3761742   -1.5657432 
 2331000    1.3718533   -1.4717684 
 2332000    1.4839739   -1.5343685 
 2333000     1.087413   -1.1584571 
 2334000    1.1439346   -1.1977826 
 2335000     1.470833   -1.5614131 
 2336000    1.6353688   -1.8713455 
 2337000    1.6187633   -1.7475002 
 2338000    1.5921931   -1.6768466 
 2339000    1.1810399   -1.3698021 
 2340000    1.2456277   -1.3857369 
 2341000     1.708204   -1.7732276 
 2342000    1.2109524   -1.3383816 
 2343000    1.1829746   -1.2247694 
 2344000    1.3084073   -1.3677737 
 2345000    1.6396145   -1.7373041 
 2346000     1.306267   -1.3284165 
 2347000    1.3913777   -1.5146617 
 2348000    1.3375109   -1.4939997 
 2349000    1.1470353   -1.1530388 
 2350000    1.1744648   -1.2539782 
 2351000    1.1680513   -1.2209649 
 2352000    1.3477658   -1.4865251 
 2353000    1.4557514   -1.6378051 
 2354000    1.5917671   -1.6776634 
 2355000    1.3027857   -1.3845644 
 2356000    1.4272592   -1.5554554 
 2357000    1.4222132   -1.5403549 
 2358000    1.3013044   -1.3606596 
 2359000    1.3274277   -1.4212157 
 2360000    1.3748475   -1.4537571 
 2361000    1.0679336   -1.2093786 
 2362000    1.2896182   -1.4167928 
 2363000    1.4743604   -1.5832579 
 2364000    1.3368215   -1.4721619 
 2365000    1.3087649   -1.4625252 
 2366000    1.7031532    -1.914899 
 2367000    1.5438006   -1.6291609 
 2368000    1.5395029   -1.5578213 
 2369000    1.2705641    -1.346486 
 2370000    1.0857632   -1.2184111 
 2371000    1.3632433   -1.5907253 
 2372000    1.6413111   -1.8152088 
 2373000    1.4945139   -1.5912979 
 2374000    1.5200335   -1.6603152 
 2375000    1.4047538    -1.572218 
 2376000    1.5850613   -1.7190903 
 2377000    1.9035987   -1.9937589 
 2378000    1.5089201   -1.6207972 
 2379000    1.8168064   -1.9732564 
 2380000    1.5132802   -1.5975499 
 2381000    1.4150115   -1.4975085 
 2382000    1.2977703   -1.3384962 
 2383000    1.2009808   -1.2383523 
 2384000    1.1389939   -1.3124557 
 2385000    0.9659568    -1.132505 
 2386000    1.2357592   -1.3921482 
 2387000    1.0445663   -1.1174509 
 2388000    1.2217116   -1.3236791 
 2389000    1.2778986   -1.3736117 
 2390000    1.3678176   -1.4688017 
 2391000    1.3037755   -1.4146741 
 2392000     1.340624   -1.4699904 
 2393000    1.4398948   -1.5525621 
 2394000     1.610273   -1.6297682 
 2395000    1.5457409   -1.6795272 
 2396000    1.3972082   -1.4633196 
 2397000    1.1898631   -1.2956414 
 2398000    1.3204789   -1.4484288 
 2399000      1.22233    -1.353314 
 2400000    1.4147066   -1.5708015 
 2401000   0.98334765   -1.1969946 
 2402000    1.2368903   -1.2857755 
 2403000    1.2391471   -1.3281811 
 2404000     1.264514   -1.4135564 
 2405000    1.3490642   -1.4537087 
 2406000    1.5030262   -1.6112356 
 2407000    1.1655408   -1.3224612 
 2408000    1.2228749    -1.329324 
 2409000   0.92173313   -1.0646135 
 2410000    1.2511377    -1.394558 
 2411000     1.275307   -1.4435632 
 2412000     1.651119   -1.7788851 
 2413000    1.8743844   -2.0398763 
 2414000    1.4473075   -1.6590807 
 2415000    1.6668747   -1.7524987 
 2416000    1.6470429   -1.7262197 
 2417000    1.6349822   -1.7176113 
 2418000    1.4916797   -1.5416947 
 2419000    1.4315424   -1.5482657 
 2420000    1.3980632   -1.5180506 
 2421000    1.4675544   -1.5334697 
 2422000    1.3369291   -1.4228972 
 2423000    1.3784908   -1.5417527 
 2424000    1.5552879   -1.7103869 
 2425000   0.90644604   -1.0893367 
 2426000    1.2244451   -1.3056007 
 2427000    1.3684881    -1.545931 
 2428000    1.1481908    -1.302362 
 2429000    1.3619052   -1.4770311 
 2430000    1.3863229   -1.4933571 
 2431000    1.2970864    -1.412485 
 2432000    1.3508261   -1.4150325 
 2433000    1.1185666   -1.2420867 
 2434000    0.9277067   -1.0029796 
 2435000    1.2569093   -1.4040953 
 2436000    1.1459319   -1.3096558 
 2437000   0.92194607   -1.0425505 
 2438000   0.84531609  -0.88752207 
 2439000   0.94924011   -1.0387051 
 2440000    1.0186492   -1.1751002 
 2441000    1.5119142   -1.6241175 
 2442000    1.0173102   -1.1597981 
 2443000    1.2554422   -1.3444033 
 2444000    1.5418565   -1.6237647 
 2445000    1.5787059   -1.6766058 
 2446000    1.7890838   -1.9162782 
 2447000    1.5513823   -1.5456505 
 2448000    1.4020613   -1.5637616 
 2449000    1.4609393   -1.5946925 
 2450000    1.3451089   -1.4678405 
 2451000    1.2104941   -1.3931056 
 2452000    1.2152485   -1.3521637 
 2453000    1.2156876   -1.3369601 
 2454000    1.1826089   -1.2869677 
 2455000    1.2828999   -1.4146184 
 2456000     1.688613   -1.8011423 
 2457000    1.5863467   -1.7615147 
 2458000    1.5045299   -1.5855309 
 2459000    1.5302578   -1.6254893 
 2460000    1.6888883   -1.8888223 
 2461000     1.513646   -1.6639048 
 2462000    1.4888874   -1.5984874 
 2463000     1.686634    -1.803375 
 2464000    1.9134969   -2.0430202 
 2465000    1.7465436     -1.87967 
 2466000    1.3968461    -1.571627 
 2467000    1.6761956   -1.7544972 
 2468000    1.7535094   -1.8849515 
 2469000    1.7090605     -1.79733 
 2470000    1.3128997   -1.4346993 
 2471000    1.1372868   -1.2893145 
 2472000    1.0805799   -1.1765204 
 2473000    1.4738785   -1.6672932 
 2474000    1.3949992   -1.5481563 
 2475000    1.4573528   -1.6036351 
 2476000    1.5589993   -1.6323807 
 2477000    1.4549682    -1.607965 
 2478000    1.1702221   -1.2941091 
 2479000    1.2163774   -1.3164441 
 2480000    1.4564485   -1.6140006 
 2481000    1.4812097   -1.5140835 
 2482000    1.3699973   -1.4930767 
 2483000    1.4539832   -1.6068859 
 2484000    1.4442191   -1.5074018 
 2485000     1.403832   -1.5253635 
 2486000    1.6945001   -1.7964596 
 2487000    1.7213302   -1.8576077 
 2488000    1.4365668   -1.6072403 
 2489000    1.7142564   -1.8483569 
 2490000    1.3493386   -1.4432584 
 2491000    1.3746832   -1.4572979 
 2492000     1.448819   -1.5691239 
 2493000    1.2384076   -1.3513898 
 2494000     1.040213   -1.1563166 
 2495000    1.1718053   -1.3532572 
 2496000    1.0810488   -1.1950256 
 2497000    1.2215773   -1.4406565 
 2498000     1.276081   -1.3012151 
 2499000    1.2252598   -1.3177513 
 2500000   0.93817565   -1.0603756 
 2501000    1.1083054   -1.1888446 
 2502000    1.4545271   -1.5645705 
 2503000    1.2444108   -1.3743314 
 2504000    1.0852596   -1.1903714 
 2505000    1.1941441     -1.28321 
 2506000    1.1701258   -1.3282828 
 2507000    1.4478854   -1.5614617 
 2508000    1.3393865   -1.4276649 
 2509000     1.291244   -1.3822965 
 2510000    1.4718303   -1.6082192 
 2511000     0.828074   -0.8432485 
 2512000    1.3991545   -1.5291265 
 2513000    1.2185355    -1.405705 
 2514000    1.7128638   -1.8173384 
 2515000    1.2103487   -1.3475159 
 2516000    1.3756743   -1.4186777 
 2517000    1.7166178   -1.8527855 
 2518000    1.4699675   -1.6058473 
 2519000    1.0373073   -1.1645551 
 2520000    1.4042497   -1.4558939 
 2521000    1.2142435   -1.3281019 
 2522000    1.0046477   -1.1498169 
 2523000    1.0638366   -1.1706937 
 2524000    1.3789372    -1.546351 
 2525000    1.3479417   -1.4688989 
 2526000    1.3576047   -1.5280223 
 2527000     1.162949   -1.2229272 
 2528000    1.0436939    -1.174894 
 2529000     1.046397   -1.1558971 
 2530000    1.2647806   -1.4424343 
 2531000    1.1063896   -1.1844274 
 2532000    1.0169549     -1.11536 
 2533000    1.3715238   -1.5402269 
 2534000    1.3333591   -1.4773109 
 2535000    1.4532323   -1.6253287 
 2536000    1.1147593   -1.1621063 
 2537000    1.3893136    -1.455161 
 2538000    1.0355837   -1.1684896 
 2539000    1.3844403   -1.3815991 
 2540000    1.3594008   -1.4087247 
 2541000    1.1948668    -1.308863 
 2542000    1.3807753   -1.4458668 
 2543000    1.5424865   -1.6404421 
 2544000    1.1253539    -1.200579 
 2545000     1.491989   -1.6151931 
 2546000    1.6264974   -1.7274512 
 2547000    1.3284538   -1.4398692 
 2548000     1.169434   -1.2670333 
 2549000    1.4920313   -1.6963633 
 2550000    1.2158892   -1.3544175 
 2551000    1.5828777   -1.7255522 
 2552000    1.8156243   -1.9589159 
 2553000     1.592495   -1.7330141 
 2554000    1.4236225   -1.4371321 
 2555000    1.4177252   -1.5952581 
 2556000    1.2046447   -1.2629339 
 2557000   0.99571933   -1.0751381 
 2558000    1.0493438   -1.1366055 
 2559000    1.3463852   -1.4895967 
 2560000    1.0877128   -1.1568755 
 2561000   0.78178745  -0.87100731 
 2562000    1.1210857   -1.2555937 
 2563000    1.4737281   -1.6147701 
 2564000    1.1521819    -1.291098 
 2565000    1.3396348   -1.4218356 
 2566000   0.98894789   -1.1034633 
 2567000    1.1189546   -1.2028299 
 2568000    1.4914208   -1.5244695 
 2569000    1.5043305   -1.5557471 
 2570000    1.2745865   -1.3855887 
 2571000    1.2936643   -1.3625141 
 2572000    1.4315994   -1.4867913 
 2573000    1.2867453   -1.4555505 
 2574000    1.0433771   -1.2120595 
 2575000    1.1051458   -1.2750226 
 2576000    1.4061872    -1.458704 
 2577000    1.6381876   -1.7322741 
 2578000     1.457324   -1.6537849 
 2579000    1.4652093   -1.5742204 
 2580000    1.0506961      -1.1838 
 2581000    0.8879005   -1.0017937 
 2582000    1.0861491   -1.2104987 
 2583000    1.1401932   -1.1626777 
 2584000    1.1489391   -1.3299529 
 2585000   0.70599723  -0.83041304 
 2586000    1.1609619    -1.223448 
 2587000    1.0707901   -1.2143608 
 2588000    1.1637929   -1.3277084 
 2589000   0.96158053   -1.0902902 
 2590000    1.3580305   -1.5260883 
 2591000    1.1884125   -1.2636793 
 2592000    1.6811956   -1.8071387 
 2593000    1.5322517   -1.7251929 
 2594000    1.7187548    -1.881322 
 2595000    1.3567473   -1.4678721 
 2596000    1.4739153   -1.6594032 
 2597000    1.4275832   -1.5468241 
 2598000    1.4168508   -1.5029514 
 2599000     1.296079   -1.4344331 
 2600000     1.259636   -1.3257515 
 2601000     1.472663   -1.6369633 
 2602000    1.4637518   -1.5581153 
 2603000    1.5052973   -1.6667473 
 2604000    1.4120825   -1.4930745 
 2605000    1.3636795   -1.3933117 
 2606000    1.1754506   -1.2957011 
 2607000    1.2439639   -1.4595866 
 2608000     1.127756   -1.2735672 
 2609000    1.0859855   -1.3073602 
 2610000    1.3698744   -1.5454784 
 2611000    1.6112176    -1.742518 
 2612000    1.2319787   -1.4161926 
 2613000    1.3164491   -1.4202835 
 2614000    1.6533424   -1.8453676 
 2615000    1.5193966   -1.7049105 
 2616000    1.9833097   -2.1153255 
 2617000    1.6968115   -1.7825295 
 2618000    1.5701189    -1.698516 
 2619000    1.6546664   -1.8043353 
 2620000     1.234908   -1.3313448 
 2621000    1.2476877   -1.3330164 
 2622000   0.98055257   -1.1105121 
 2623000    1.0553855   -1.2198165 
 2624000    1.3715459   -1.5486292 
 2625000    1.2811728   -1.3318805 
 2626000    1.3196823   -1.5150402 
 2627000     1.453407   -1.5132179 
 2628000    1.4860773   -1.5891003 
 2629000    1.3656939   -1.4757505 
 2630000    1.5002477   -1.6084946 
 2631000    1.5725065   -1.6357701 
 2632000    1.6723193   -1.7590657 
 2633000     1.680829   -1.7413346 
 2634000    1.4564795   -1.6062488 
 2635000     1.359974   -1.4616139 
 2636000    1.3251981   -1.5040107 
 2637000    1.5242682   -1.5299678 
 2638000    1.1918428   -1.2669112 
 2639000    1.2716189   -1.2675971 
 2640000    1.3316285   -1.4367635 
 2641000    1.2944707    -1.390166 
 2642000    1.3523156   -1.4984966 
 2643000    1.2763274   -1.3736604 
 2644000    1.0622824   -1.2148567 
 2645000    1.1367773   -1.2810026 
 2646000    1.5021492   -1.5439343 
 2647000    1.2756206   -1.3621295 
 2648000    1.3816005   -1.4554339 
 2649000   0.83968679  -0.87947357 
 2650000   0.49457216  -0.61392258 
 2651000    1.3371808   -1.3738935 
 2652000    1.3679609   -1.4355277 
 2653000    1.4466013   -1.6416239 
 2654000    1.6071544   -1.7309014 
 2655000     1.402817   -1.5317316 
 2656000    1.6048981   -1.7840664 
 2657000    1.3501745   -1.5336165 
 2658000    1.6531222   -1.8679403 
 2659000    1.6878658   -1.7876811 
 2660000    1.8485392   -1.9850869 
 2661000    1.4349492   -1.5615878 
 2662000    1.3562748   -1.3820537 
 2663000   0.91193764   -1.0210441 
 2664000    1.1306841   -1.2289342 
 2665000   0.93735379   -1.0557604 
 2666000    1.1611003   -1.1530127 
 2667000    1.2455495   -1.3394111 
 2668000    1.1048443   -1.1963473 
 2669000   0.94538121   -1.0937856 
 2670000    1.0507604   -1.2067724 
 2671000    1.3383495   -1.5375758 
 2672000    1.0195772   -1.1077363 
 2673000    1.4677383   -1.5797164 
 2674000    1.2667892   -1.4066804 
 2675000    1.6107621   -1.7774517 
 2676000    1.5857303   -1.6662392 
 2677000    1.2274069    -1.291895 
 2678000     1.396685    -1.510051 
 2679000    1.1554533   -1.2621144 
 2680000    1.4126405   -1.5199085 
 2681000    1.4117865   -1.4943558 
 2682000    1.2525132   -1.4173646 
 2683000    1.2037319   -1.3930921 
 2684000    1.3493473   -1.4262144 
 2685000    1.0819111   -1.2037952 
 2686000    1.2956826   -1.4023018 
 2687000    1.4474852   -1.5480177 
 2688000    1.4103129       -1.529 
 2689000    1.6115081   -1.7322745 
 2690000    1.2709668   -1.4041137 
 2691000   0.81855431  -0.91817293 
 2692000    1.0450609   -1.1746325 
 2693000    1.3380997   -1.4369672 
 2694000    1.5598731    -1.666928 
 2695000    1.7811513   -1.9788839 
 2696000    1.3700514   -1.5510456 
 2697000    1.3547952   -1.4543257 
 2698000    1.2117415   -1.3739905 
 2699000    1.0497754   -1.1831957 
 2700000    1.5033293   -1.6119891 
 2701000    1.5338377    -1.701047 
 2702000    1.2523493   -1.3454997 
 2703000    1.4576546   -1.5962975 
 2704000    1.3983705   -1.5176222 
 2705000    1.2829781    -1.396276 
 2706000    1.4054691   -1.4136296 
 2707000    1.3711433   -1.4541602 
 2708000    0.9384982    -1.072743 
 2709000    1.1806702   -1.3411806 
 2710000    1.5645018   -1.6842811 
 2711000    1.5083197   -1.6723675 
 2712000    1.4355105   -1.5619643 
 2713000    1.3717814    -1.536528 
 2714000    1.2233939   -1.4159787 
 2715000    1.2257925   -1.2956816 
 2716000    1.3386369   -1.5067381 
 2717000    1.2832743   -1.4030739 
 2718000   0.93246513   -1.0664672 
 2719000    1.2141118   -1.3028605 
 2720000    1.2956533   -1.3584906 
 2721000    1.4601001   -1.5598605 
 2722000    1.0270689     -1.20384 
 2723000     1.220638   -1.3360606 
 2724000    1.1051173   -1.2360762 
 2725000   0.95656731   -1.1562038 
 2726000   0.95063418   -1.0471133 
 2727000    1.0732892   -1.1560478 
 2728000   0.99897466   -1.1182157 
 2729000     1.167186   -1.2681539 
 2730000   0.96599658   -1.1020441 
 2731000    1.3231106   -1.4092497 
 2732000    1.5528206   -1.6329623 
 2733000    1.5683241   -1.6947919 
 2734000    1.0663347    -1.232196 
 2735000    1.0891859   -1.2126569 
 2736000    1.4073567   -1.5404863 
 2737000    1.4646215   -1.6810302 
 2738000    1.3703368   -1.5142108 
 2739000    1.2980136    -1.408365 
 2740000    1.3741291   -1.5158198 
 2741000    1.3231998   -1.3822154 
 2742000    1.2654071   -1.4356277 
 2743000    1.0677147   -1.1837179 
 2744000    1.6285884   -1.8261393 
 2745000    1.1971182    -1.368148 
 2746000    1.1480724   -1.2018961 
 2747000    1.2394257   -1.3241523 
 2748000    1.6107247   -1.7530645 
 2749000    1.3120015   -1.3754502 
 2750000    1.6534751   -1.7243348 
 2751000    1.5909904   -1.7137094 
 2752000    1.3860286   -1.4078472 
 2753000    1.2929676   -1.4557212 
 2754000    1.0746295     -1.11317 
 2755000    1.0347051   -1.2303887 
 2756000    1.0198008   -1.1104601 
 2757000    1.3922847   -1.5487538 
 2758000    1.5273853   -1.6150916 
 2759000    1.1917781   -1.3485678 
 2760000    1.5758831    -1.688924 
 2761000    1.4402227   -1.5784546 
 2762000    1.1239816    -1.208746 
 2763000   0.87934367   -1.0296942 
 2764000     1.152339   -1.2602869 
 2765000   0.95173978   -1.1071347 
 2766000    1.2491258   -1.3598181 
 2767000    1.4148974     -1.58771 
 2768000    1.2123138   -1.3046048 
 2769000    1.4810608   -1.5981838 
 2770000    1.7528497   -1.8698954 
 2771000    1.3122716   -1.4396898 
 2772000    1.3662565   -1.4621211 
 2773000    1.4797583   -1.4770385 
 2774000    1.4669276   -1.5278094 
 2775000    1.1808797   -1.3468706 
 2776000    1.2812471   -1.3669936 
 2777000   0.90348085    -1.015156 
 2778000    1.3066115   -1.4015873 
 2779000    1.4467235   -1.5341342 
 2780000    1.2031228   -1.3493492 
 2781000    1.4982109   -1.6604821 
 2782000     1.256845   -1.4279932 
 2783000    1.1048088   -1.1648737 
 2784000     1.226184   -1.2580588 
 2785000    1.2966972   -1.4405111 
 2786000    1.2755353   -1.4171339 
 2787000    1.2738692   -1.4061078 
 2788000    1.1002646   -1.2632997 
 2789000    1.1041257   -1.2264526 
 2790000    1.0451421   -1.1159225 
 2791000    1.1690281   -1.3391888 
 2792000     1.145291   -1.2766866 
 2793000   0.99774258   -1.1568457 
 2794000    1.1077317   -1.3004468 
 2795000    1.3812443   -1.5117789 
 2796000    1.2595941   -1.4531713 
 2797000    1.7115536   -1.7946615 
 2798000    1.7003875   -1.8711298 
 2799000    1.2440577   -1.3489798 
 2800000    1.0461346   -1.1895008 
 2801000   0.60713908   -0.7294011 
 2802000    1.4261668   -1.5310599 
 2803000    1.3580941   -1.5602472 
 2804000   0.91900902   -1.0291585 
 2805000    1.2316528   -1.3747626 
 2806000    1.3523769   -1.4225085 
 2807000    1.1755552   -1.3088969 
 2808000    1.0646066   -1.1595694 
 2809000    1.0258589   -1.2213686 
 2810000   0.84768191    -1.024813 
 2811000    1.0513455   -1.1765737 
 2812000    1.0388276   -1.2353604 
 2813000    1.2144892   -1.3013443 
 2814000     1.236246   -1.3306373 
 2815000    1.4370493   -1.5087429 
 2816000    1.1669289   -1.2734105 
 2817000    1.4179361   -1.5341085 
 2818000    1.2682251    -1.401325 
 2819000    1.2582059   -1.2812738 
 2820000    1.3526418   -1.4010244 
 2821000    1.0619085     -1.23906 
 2822000   0.91217996   -1.0463847 
 2823000    1.2054245   -1.3519977 
 2824000    1.2345949   -1.3319061 
 2825000    1.1044818   -1.3030793 
 2826000    1.0943464   -1.2142492 
 2827000      1.61979   -1.6960689 
 2828000     1.326095   -1.4941195 
 2829000     1.357549   -1.5008059 
 2830000    1.3633208   -1.5386422 
 2831000     1.233306   -1.2446723 
 2832000     1.578882   -1.7823083 
 2833000    1.2832091   -1.3873277 
 2834000    1.3400209   -1.4363851 
 2835000    1.5035954   -1.6777362 
 2836000    1.0502615   -1.1361625 
 2837000     1.222965   -1.3171627 
 2838000    1.5841344   -1.6835889 
 2839000    1.4283433   -1.5403901 
 2840000     1.223343   -1.3541941 
 2841000    1.3928995   -1.5178943 
 2842000    1.0410336   -1.2282514 
 2843000    1.0929617   -1.2563128 
 2844000    1.6331388   -1.7117307 
 2845000    1.4359442   -1.5841994 
 2846000    1.4066524   -1.4441567 
 2847000    1.5442899   -1.6217895 
 2848000     1.354046   -1.5091989 
 2849000    1.6442005    -1.781281 
 2850000    1.2966545   -1.4306486 
 2851000    1.2522865   -1.4758769 
 2852000    1.3901665   -1.5459409 
 2853000    1.4997978   -1.6031309 
 2854000    1.5237744   -1.5891425 
 2855000    1.6245231   -1.7290161 
 2856000    1.6263934   -1.7668672 
 2857000    1.9490081   -2.0864128 
 2858000     1.578008    -1.690123 
 2859000    1.5513598   -1.6029549 
 2860000    1.4467601   -1.5399011 
 2861000    1.3850938   -1.5162882 
 2862000    1.3555136   -1.4009783 
 2863000    1.6122865   -1.6795051 
 2864000    1.4460452   -1.6002166 
 2865000    1.1748985   -1.3469784 
 2866000    1.4248661   -1.5524849 
 2867000    1.6236312   -1.6858905 
 2868000     1.517809   -1.5611102 
 2869000    1.8040361   -1.8581544 
 2870000    1.4119849   -1.4980792 
 2871000    1.6526326   -1.8232552 
 2872000    1.2690076   -1.4142286 
 2873000    1.3383929   -1.5117126 
 2874000    1.6264137   -1.7810915 
 2875000     1.682176   -1.7854587 
 2876000    1.3138823    -1.509619 
 2877000    1.6277551   -1.7733928 
 2878000    1.4546606   -1.5275789 
 2879000    1.5346531    -1.639676 
 2880000    1.0710049    -1.192216 
 2881000   0.89412145   -1.0141272 
 2882000    1.0387871   -1.0978694 
 2883000     1.070304   -1.1991627 
 2884000   0.83662727   -1.0072545 
 2885000   0.79189773  -0.90313817 
 2886000   0.94491972   -1.0145434 
 2887000   0.97271758   -1.0568982 
 2888000   0.81491972  -0.92013992 
 2889000    1.2498971     -1.37466 
 2890000    1.1493416   -1.1680391 
 2891000   0.93197932   -1.0568826 
 2892000    1.1654006   -1.2650486 
 2893000    1.5375745   -1.6738331 
 2894000    1.4496817   -1.5130755 
 2895000    1.1950278   -1.3688188 
 2896000   0.90136891    -1.060407 
 2897000   0.95426234    -1.044074 
 2898000   0.95313026   -1.0597975 
 2899000    1.2505581   -1.3923646 
 2900000    1.1541213   -1.2826583 
 2901000    1.2377319   -1.4013773 
 2902000     1.166963   -1.3334463 
 2903000   0.89276526   -1.0445083 
 2904000    1.6426594   -1.7804563 
 2905000    1.5603662   -1.7267064 
 2906000    1.3934885    -1.549154 
 2907000    1.2637315   -1.4123242 
 2908000    1.2020987   -1.2616197 
 2909000    1.3748351   -1.4942885 
 2910000    1.5669041   -1.7081432 
 2911000    1.4301748   -1.5781999 
 2912000    1.1517442   -1.3011025 
 2913000    1.2995563   -1.4412271 
 2914000    1.2915233   -1.3259751 
 2915000    1.1481114   -1.2550865 
 2916000    1.4509943   -1.6045249 
 2917000    1.6365142   -1.6988041 
 2918000    1.2693974   -1.4470194 
 2919000      1.50922   -1.6274753 
 2920000    1.6677557   -1.7289693 
 2921000    1.3572194   -1.3478073 
 2922000    1.4569948   -1.4954243 
 2923000    1.5389963   -1.7216823 
 2924000     1.293003   -1.3934459 
 2925000    1.2657032   -1.3896564 
 2926000     1.312372    -1.382121 
 2927000     1.390144   -1.5155834 
 2928000    1.2478193   -1.3486935 
 2929000    1.3206781   -1.4314166 
 2930000    1.2788162   -1.4414361 
 2931000    1.3619271   -1.4595151 
 2932000    1.0190998   -1.1335724 
 2933000    1.4726053   -1.5267377 
 2934000    1.3736643   -1.4957064 
 2935000    1.2120874   -1.2509612 
 2936000   0.87715534    -1.014109 
 2937000   0.80323656  -0.89205346 
 2938000    1.0215995   -1.1024754 
 2939000    1.0297992   -1.1239983 
 2940000    1.0743736   -1.1572662 
 2941000    1.0527158   -1.1842583 
 2942000    1.2883908    -1.319365 
 2943000     1.469121   -1.5887596 
 2944000    1.4554588   -1.6258678 
 2945000    1.4050276   -1.4566417 
 2946000    1.4365716   -1.5563358 
 2947000    1.1746172   -1.3464106 
 2948000    1.3512477   -1.4787335 
 2949000    1.3202049   -1.4836842 
 2950000    1.5936341   -1.6972542 
 2951000    1.1074637   -1.2761339 
 2952000    1.4720016   -1.5587996 
 2953000    1.3426976    -1.488591 
 2954000    1.5887453   -1.7070295 
 2955000     1.247654   -1.4047707 
 2956000    1.3565374   -1.5412454 
 2957000    1.3738284   -1.5216479 
 2958000    1.5447572   -1.6049297 
 2959000    1.6092664    -1.713737 
 2960000    1.4273935    -1.554259 
 2961000    1.5114982   -1.5618797 
 2962000    1.3782854   -1.4745736 
 2963000    1.1462604   -1.2676662 
 2964000    1.5534411   -1.7296708 
 2965000    1.4019228   -1.5416035 
 2966000   0.99079773   -1.1412037 
 2967000    1.0902503   -1.2445556 
 2968000   0.94812135   -1.0383613 
 2969000    1.2642248   -1.3964626 
 2970000    0.9789475   -1.0457578 
 2971000    1.1932072   -1.2115428 
 2972000    1.0673371   -1.2573358 
 2973000    1.0586115   -1.1485286 
 2974000    1.2337723    -1.304958 
 2975000    1.1258278   -1.2203665 
 2976000    1.3924385   -1.5438308 
 2977000    1.1092937   -1.2178936 
 2978000    1.2969416   -1.4169563 
 2979000    1.1919412   -1.3032105 
 2980000    1.2655142   -1.3738944 
 2981000    1.1033607   -1.2737372 
 2982000     1.214537   -1.3126812 
 2983000     1.621253   -1.7880624 
 2984000    1.3658631   -1.4414047 
 2985000    1.0980264   -1.2128947 
 2986000    1.0487728   -1.2373567 
 2987000    1.0091415   -1.1300979 
 2988000   0.98317462   -1.1352645 
 2989000    1.0213852    -1.077398 
 2990000    1.0620154   -1.1666376 
 2991000    1.7332436   -1.8551581 
 2992000    1.6927755   -1.7398723 
 2993000    1.5430428   -1.7406663 
 2994000    1.4899457   -1.5672263 
 2995000    1.0956262    -1.262215 
 2996000    1.2566139   -1.3867401 
 2997000    1.1832976    -1.336876 
 2998000    1.1206628    -1.261291 
 2999000   0.98422375   -1.0828115 
 3000000    1.2416597   -1.4586312 
 3001000    1.5437995   -1.7284582 
 3002000    2.0915811   -2.2488943 
 3003000    1.6287993   -1.7901075 
 3004000    1.5422215   -1.7229145 
 3005000    1.5356421   -1.6733549 
 3006000    1.6046805   -1.7416432 
 3007000    1.9165374   -1.9656587 
 3008000     1.412654   -1.5863293 
 3009000    2.0829516   -2.2064594 
 3010000    1.7302824   -1.7844967 
 3011000    1.3720884   -1.4957026 
 3012000    1.5538049   -1.6755216 
 3013000    1.2853031   -1.4136783 
 3014000    1.1674268   -1.2911874 
 3015000    1.3843854   -1.5429002 
 3016000    1.1891597   -1.3955499 
 3017000    1.0427204   -1.1011318 
 3018000    1.4094807   -1.5220559 
 3019000    1.3732167   -1.5060805 
 3020000    1.0511707   -1.1779697 
 3021000    1.3352841   -1.4602158 
 3022000    1.7727403   -1.8575578 
 3023000    1.7736831   -1.9535107 
 3024000    1.3652943   -1.6045427 
 3025000    1.3587844    -1.597187 
 3026000    1.4460107   -1.5841482 
 3027000    1.0365849   -1.0718831 
 3028000   0.91718113   -1.1037889 
 3029000    1.1965509   -1.3558021 
 3030000     1.269541   -1.4734377 
 3031000    1.1545135   -1.2689143 
 3032000    1.5769727   -1.7125304 
 3033000    1.5473495   -1.6647821 
 3034000    1.3328279   -1.4329697 
 3035000    1.2118151   -1.3287943 
 3036000    1.2691428   -1.3341139 
 3037000    1.4948597   -1.6540504 
 3038000    1.3054578   -1.3952544 
 3039000    1.1100789   -1.2590885 
 3040000   0.93522279  -0.94772691 
 3041000    1.2032193   -1.3811304 
 3042000    1.5168343   -1.5949623 
 3043000     1.379029   -1.5444798 
 3044000     1.805503   -1.9121172 
 3045000    1.5762734   -1.7274855 
 3046000    1.6402233    -1.771545 
 3047000    1.9789903   -2.0877656 
 3048000    1.8494212    -1.867555 
 3049000    1.5578088   -1.7265392 
 3050000    1.7524609   -1.8571785 
 3051000    1.5796813   -1.7052024 
 3052000    1.4616997   -1.6378503 
 3053000    2.0058303   -2.1098181 
 3054000    1.8047583   -1.8248994 
 3055000    1.3066447   -1.4368639 
 3056000    1.4238269   -1.5915834 
 3057000    1.3419795   -1.4626755 
 3058000    1.2644463   -1.3375195 
 3059000    1.2209215   -1.3815172 
 3060000    1.1763681   -1.3816041 
 3061000    1.1753745   -1.2735892 
 3062000     1.244593   -1.3724203 
 3063000     1.149486    -1.115659 
 3064000    1.5119943   -1.6513687 
 3065000    1.4402428   -1.5798623 
 3066000    1.5022701   -1.6864797 
 3067000     1.308296   -1.4360341 
 3068000    1.5211617   -1.6799049 
 3069000    1.4932468    -1.463155 
 3070000    1.2836304   -1.4460035 
 3071000    1.4476854   -1.5897529 
 3072000   0.97949201   -1.1410546 
 3073000    1.4545701    -1.510418 
 3074000    1.4296326   -1.5523116 
 3075000    1.1193627   -1.2322163 
 3076000    1.0653139   -1.2266649 
 3077000    1.1584261   -1.2243558 
 3078000    1.2240882   -1.3520317 
 3079000    1.7395183   -1.8042727 
 3080000    1.2645168   -1.4037798 
 3081000   0.98721544   -1.1188759 
 3082000   0.89444109   -1.0304966 
 3083000    1.1822827   -1.2344553 
 3084000    1.0371328   -1.1666778 
 3085000   0.91636642   -1.1169812 
 3086000    1.0087629   -1.1647603 
 3087000    1.3016345   -1.3449231 
 3088000    1.3671858    -1.506727 
 3089000     1.372542   -1.4756399 
 3090000    1.2764818   -1.3891833 
 3091000    1.3312169   -1.4289197 
 3092000    1.4275895   -1.5351348 
 3093000    1.3747447   -1.4807379 
 3094000    1.4823035   -1.5511407 
 3095000    1.1996632   -1.2680596 
 3096000    1.5821806   -1.7464118 
 3097000    1.2959839   -1.4492572 
 3098000    1.3808108   -1.5785065 
 3099000     1.084604   -1.2538487 
 3100000    1.1806452   -1.3560748 
 3101000    1.1184889   -1.2343059 
 3102000    1.2798992   -1.5578602 
 3103000    1.4338511   -1.5058338 
 3104000    1.2274828   -1.3259765 
 3105000   0.99464256   -1.0798723 
 3106000    1.0370964    -1.188926 
 3107000    1.3748085   -1.5485325 
 3108000    1.7745624   -1.8756338 
 3109000    1.4886984   -1.5709104 
 3110000    1.3417583   -1.5902708 
 3111000    1.3638089   -1.5686715 
 3112000    1.4357565   -1.5549388 
 3113000    1.2704977   -1.3346357 
 3114000    1.1399211   -1.2687585 
 3115000    1.4411211   -1.6023048 
 3116000    1.3251719    -1.502117 
 3117000    1.4575791   -1.6812566 
 3118000    1.2811067   -1.4994476 
 3119000    1.3839003   -1.4926598 
 3120000    1.4636233    -1.600242 
 3121000    1.7045126   -1.7556144 
 3122000    1.2702886   -1.3759622 
 3123000   0.95608861   -1.0950811 
 3124000     1.248716   -1.4118165 
 3125000   0.98286537   -1.1255726 
 3126000     1.076732   -1.2159073 
 3127000    1.1193543   -1.2118073 
 3128000   0.97483113    -1.059333 
 3129000    1.0246833   -1.1059772 
 3130000    1.2142051   -1.4527325 
 3131000    1.1952617   -1.3301307 
 3132000    1.3243715   -1.3924454 
 3133000    1.0685443   -1.1457901 
 3134000    1.4463187   -1.6154229 
 3135000    1.2911747   -1.4055203 
 3136000    1.2571473   -1.3628152 
 3137000    1.5360278   -1.6309833 
 3138000    1.5071848   -1.6596695 
 3139000   0.98485471   -1.0625959 
 3140000   0.69676178  -0.81874423 
 3141000    1.1015802   -1.1975072 
 3142000    1.0954822   -1.1886904 
 3143000      0.80529   -1.0252279 
 3144000    1.1379815    -1.263416 
 3145000     1.352052   -1.4827795 
 3146000    1.3229816   -1.3061097 
 3147000   0.90230447   -1.0388418 
 3148000    1.0087307   -1.1350379 
 3149000   0.67318695  -0.70137979 
 3150000   0.89521315   -1.0106253 
 3151000    1.3638174   -1.3941713 
 3152000    1.2769748   -1.3226401 
 3153000    1.7298658   -1.8218939 
 3154000    1.3614113   -1.4374454 
 3155000      1.48987    -1.532847 
 3156000    1.4717821   -1.5782944 
 3157000    1.2840926   -1.4294406 
 3158000   0.97884002   -1.0618484 
 3159000   0.90887673   -0.9963175 
 3160000    1.2095029   -1.3038627 
 3161000    1.1545885   -1.2785389 
 3162000    1.0054694   -1.1219751 
 3163000    1.3379382    -1.465308 
 3164000    1.4340734   -1.5742964 
 3165000    1.4323086   -1.6226373 
 3166000    1.5487891   -1.6240478 
 3167000    1.4733636   -1.6013861 
 3168000    1.3612862   -1.4595314 
 3169000    1.2519165   -1.2698018 
 3170000    1.1619318   -1.3096003 
 3171000    1.3787894   -1.4657881 
 3172000    1.2307758   -1.3477667 
 3173000    1.2431022   -1.3656867 
 3174000   0.95545477    -1.096726 
 3175000    1.1494751   -1.1597999 
 3176000    1.4420592   -1.5572178 
 3177000    1.3265093   -1.4555766 
 3178000    1.5307501   -1.7393031 
 3179000    1.5853219   -1.7184862 
 3180000    1.6226705   -1.7057953 
 3181000    1.4274834   -1.4701645 
 3182000    1.4317868   -1.5683189 
 3183000    1.2637902   -1.3500955 
 3184000    1.5183706   -1.5746445 
 3185000    1.4455235   -1.5810344 
 3186000    1.2811216   -1.3242874 
 3187000    1.2016554   -1.3212156 
 3188000    1.5773818   -1.6759455 
 3189000    1.2014897   -1.2551747 
 3190000    1.3306971   -1.4897923 
 3191000    1.0530634   -1.2183345 
 3192000    1.2035841   -1.2802979 
 3193000    1.0878087   -1.1557208 
 3194000    1.2588259   -1.3198672 
 3195000    1.5263455   -1.6698876 
 3196000    1.2230181   -1.3430354 
 3197000    1.1989913   -1.2502663 
 3198000    1.0471102    -1.106314 
 3199000    1.6706479   -1.7735737 
 3200000    1.0686788   -1.1770895 
 3201000    1.0712592   -1.1533216 
 3202000    1.2437934    -1.402845 
 3203000    1.0218213   -1.1335747 
 3204000    1.1475988   -1.3837972 
 3205000    1.5128264   -1.5658776 
 3206000    1.5449416    -1.642206 
 3207000    1.1349666    -1.126106 
 3208000    1.4540005   -1.6249086 
 3209000    1.4835547   -1.5281775 
 3210000    1.2882041   -1.3299946 
 3211000     1.274735    -1.481996 
 3212000     1.338335   -1.4868021 
 3213000    1.5395191    -1.660164 
 3214000    1.1662189   -1.3182807 
 3215000    1.2860291   -1.4102261 
 3216000   0.93409298   -1.1094173 
 3217000    1.1253762   -1.2383274 
 3218000   0.96277602   -1.0885835 
 3219000    1.1911745   -1.3752977 
 3220000    1.5508933   -1.6604559 
 3221000    1.2383412   -1.3744469 
 3222000    1.4571653   -1.6291599 
 3223000    1.2244494   -1.2756647 
 3224000    1.2975777     -1.35877 
 3225000    1.4094123   -1.4964898 
 3226000    1.2656733   -1.4081958 
 3227000    1.2705517   -1.3879138 
 3228000   0.76716892  -0.90299402 
 3229000   0.99675017   -1.0872001 
 3230000    1.4468389   -1.5476529 
 3231000    1.4084239   -1.6047578 
 3232000    1.2590904   -1.3035272 
 3233000    1.3198859   -1.3893883 
 3234000    1.2840357   -1.4020813 
 3235000    1.2578983   -1.3172536 
 3236000    1.0750634   -1.1575874 
 3237000    1.1818899   -1.3164663 
 3238000    1.1605696   -1.3134261 
 3239000   0.88729069  -0.97165818 
 3240000    1.3418561   -1.4216986 
 3241000    1.1842286   -1.3233085 
 3242000    1.4012399   -1.5260014 
 3243000    1.8199541   -2.0032963 
 3244000    1.8460702   -1.9788209 
 3245000    1.0532498   -1.1862931 
 3246000    1.4905019   -1.6023863 
 3247000    1.7100912   -1.7849203 
 3248000    1.4104487   -1.5944008 
 3249000    1.3750856   -1.4561344 
 3250000    1.1889816   -1.3181999 
 3251000    1.1997187   -1.2664428 
 3252000     1.259197   -1.3678788 
 3253000    1.0849173   -1.2314881 
 3254000    1.3494667   -1.4190578 
 3255000   0.96654564   -1.1088033 
 3256000   0.95676941   -1.0264905 
 3257000   0.80249722  -0.94946066 
 3258000   0.95600116    -1.017194 
 3259000    1.1771988   -1.3166146 
 3260000    1.3581754    -1.495178 
 3261000    1.6196136   -1.7685507 
 3262000    1.7309355   -1.8748845 
 3263000    1.5522744    -1.618643 
 3264000    1.3977975   -1.4786408 
 3265000    1.4016074   -1.4720442 
 3266000    1.3522797   -1.3735643 
 3267000    1.4656655     -1.57835 
 3268000    1.4988664   -1.5891716 
 3269000    1.4969303   -1.6241848 
 3270000    1.4094479   -1.5873807 
 3271000    1.1966241   -1.2916042 
 3272000    1.4335247   -1.4822179 
 3273000    1.3358546   -1.5290829 
 3274000    1.2370762   -1.3333414 
 3275000    1.0183148   -1.2462947 
 3276000    1.3916551   -1.6190606 
 3277000    1.6363915   -1.7274781 
 3278000    1.5358111   -1.6692333 
 3279000    1.3892937   -1.4814284 
 3280000    1.3131378   -1.3888675 
 3281000    1.0817748   -1.1853018 
 3282000    1.1997217   -1.2655025 
 3283000    1.4794578   -1.6767876 
 3284000    1.0557523   -1.2862254 
 3285000     1.116814   -1.3012861 
 3286000    1.6100337   -1.5866997 
 3287000    1.4436873   -1.6394228 
 3288000    1.2059915   -1.3262899 
 3289000    1.3693736    -1.483418 
 3290000    1.6354285   -1.7856649 
 3291000    1.4008064   -1.6004591 
 3292000    1.3795725   -1.4994562 
 3293000    1.5189584   -1.7028721 
 3294000     1.094591   -1.2650454 
 3295000   0.84112446  -0.98998089 
 3296000    1.0787825    -1.156445 
 3297000    1.0189924   -1.1668349 
 3298000   0.95644582   -1.1416683 
 3299000   0.88658364   -1.0651107 
 3300000    1.1226201   -1.1445875 
 3301000    1.4364448   -1.6024189 
 3302000    1.7585635   -1.8968985 
 3303000    1.7768071   -1.8434583 
 3304000    1.8497792   -2.0904818 
 3305000    1.7128954   -1.8833622 
 3306000    1.6365601    -1.781574 
 3307000    1.3971901   -1.5044592 
 3308000    1.6205818   -1.7115587 
 3309000    1.7003909   -1.8398267 
 3310000    1.6890792   -1.7437872 
 3311000    1.5309789   -1.6787762 
 3312000    1.5055566   -1.5949182 
 3313000    1.4119688   -1.5229308 
 3314000    1.3235495   -1.3956464 
 3315000    1.4227318   -1.5399709 
 3316000    1.4025188   -1.4481686 
 3317000    1.3771527   -1.4598959 
 3318000    1.4256419   -1.5204607 
 3319000    1.3162075   -1.3542045 
 3320000    1.2521202    -1.379333 
 3321000    1.6152758   -1.6515678 
 3322000    1.3279823   -1.5216529 
 3323000    1.3638014   -1.4814623 
 3324000    1.3702356   -1.4548577 
 3325000    1.5066763   -1.6239048 
 3326000    1.6221758   -1.8210892 
 3327000    1.8547145    -1.942475 
 3328000    1.5240735   -1.6501636 
 3329000    1.3892153    -1.468658 
 3330000    1.5676252   -1.7072261 
 3331000    1.5608654   -1.7084046 
 3332000    1.5332243   -1.6756305 
 3333000    1.5099809   -1.6143479 
 3334000    1.6962389   -1.8488519 
 3335000    1.5829255   -1.7191965 
 3336000    1.4072161   -1.5646781 
 3337000    1.3527597   -1.5250875 
 3338000    1.6800841   -1.8852992 
 3339000    1.8131723   -1.8633743 
 3340000    1.6938475   -1.7567897 
 3341000    1.8587435   -1.9786112 
 3342000     1.320405   -1.4229814 
 3343000    1.3795634   -1.3910068 
 3344000    1.2875108   -1.4253152 
 3345000    1.3058917   -1.4279678 
 3346000    1.2994872    -1.382949 
 3347000    1.4927177   -1.6067872 
 3348000    1.6563085   -1.7383896 
 3349000    1.6959159   -1.7924235 
 3350000    1.5324079   -1.6419061 
 3351000     1.376075   -1.5299697 
 3352000    1.6913722   -1.7784042 
 3353000    1.4822498   -1.6017814 
 3354000    1.5453307   -1.7405379 
 3355000    1.2460859   -1.3335341 
 3356000    1.2164409   -1.2484537 
 3357000    1.7193157   -1.7440842 
 3358000     1.696712   -1.7897005 
 3359000    1.4017401   -1.5005525 
 3360000    1.3790924   -1.4980073 
 3361000    1.3145238   -1.4580751 
 3362000    1.6615104   -1.7760665 
 3363000     1.455035   -1.5847115 
 3364000    1.9332604   -1.9591688 
 3365000    1.4368012   -1.5732797 
 3366000    1.7125388   -1.8496901 
 3367000    1.3833111   -1.5560651 
 3368000    1.3571127   -1.4403046 
 3369000    1.4091802   -1.5084754 
 3370000    1.4284329   -1.6105419 
 3371000    1.3144335   -1.4702253 
 3372000   0.76496762  -0.88047599 
 3373000   0.75675179  -0.87747112 
 3374000    1.1823976   -1.2847849 
 3375000    0.8643627   -1.0237982 
 3376000    1.0528604   -1.1558894 
 3377000   0.84877551  -0.91485675 
 3378000    1.1720558   -1.2758974 
 3379000   0.97952186   -1.0581444 
 3380000    1.6285533   -1.6852054 
 3381000    1.5632791   -1.6329565 
 3382000    1.6013633   -1.7618986 
 3383000    1.4144689    -1.543934 
 3384000    1.7861155   -1.9935708 
 3385000    1.6467386   -1.8569672 
 3386000    1.6945279   -1.7989783 
 3387000    1.5745702    -1.712677 
 3388000    1.7184381   -1.9001513 
 3389000    1.9486143   -2.1467002 
 3390000    1.4898863   -1.5753431 
 3391000    1.3071213   -1.4711989 
 3392000    1.2134497    -1.364131 
 3393000    1.5717265   -1.6856125 
 3394000    1.3246365   -1.4219176 
 3395000    1.5299314   -1.5781869 
 3396000    1.4706733   -1.6135974 
 3397000    1.2394775   -1.2950795 
 3398000    1.1746615    -1.280257 
 3399000     1.313336   -1.4645574 
 3400000    1.2092607   -1.2907764 
 3401000    1.4251277    -1.428151 
 3402000    1.4116868   -1.4920599 
 3403000    1.1803886   -1.3108938 
 3404000    1.1878343   -1.3083454 
 3405000    1.0365145   -1.1135957 
 3406000   0.95166887    -1.175822 
 3407000   0.64613736  -0.67154194 
 3408000   0.94622456    -1.130363 
 3409000    1.3224516   -1.4285204 
 3410000     1.229737   -1.3274328 
 3411000    1.0015752   -1.2119773 
 3412000   0.90599078  -0.96176709 
 3413000    0.8227394  -0.98576084 
 3414000     1.133668   -1.2549975 
 3415000    1.2511438   -1.3764617 
 3416000     1.701119   -1.8473333 
 3417000    1.7213755   -1.8418713 
 3418000    1.3994407   -1.5236497 
 3419000    1.4035343     -1.51641 
 3420000    1.2819732   -1.4365894 
 3421000    1.5968152   -1.7100313 
 3422000    1.6430566   -1.7485954 
 3423000    1.1909076   -1.2935715 
 3424000    1.3212187   -1.4066976 
 3425000    1.1475776   -1.2672747 
 3426000    1.2609866   -1.3271832 
 3427000    1.1053762   -1.1953297 
 3428000    1.3767919   -1.5437809 
 3429000    1.1223331   -1.2877612 
 3430000     1.373349   -1.5019627 
 3431000    1.2671243   -1.3600395 
 3432000    1.6758474   -1.7117944 
 3433000       1.3862   -1.5101996 
 3434000    1.6979607   -1.8388403 
 3435000    1.6152187    -1.800587 
 3436000    1.2810402   -1.4128154 
 3437000    1.4957812   -1.6401889 
 3438000    1.5022141   -1.6089274 
 3439000     1.539391   -1.6007108 
 3440000    1.6359338   -1.6428141 
 3441000    1.4552284   -1.6189017 
 3442000    1.5387409   -1.6487775 
 3443000    1.2941983   -1.3797449 
 3444000    1.3974983   -1.5009961 
 3445000    1.6074899   -1.6566179 
 3446000     1.466064   -1.5752255 
 3447000    1.4434643   -1.5285371 
 3448000    1.6379339   -1.7699559 
 3449000    1.0812857   -1.2395935 
 3450000    1.3050009   -1.3850958 
 3451000    1.5780974   -1.6135527 
 3452000    1.4700636   -1.5632974 
 3453000    1.3751984   -1.5389956 
 3454000    1.4120585   -1.5511801 
 3455000    1.3721652   -1.5093119 
 3456000       1.1884   -1.3813794 
 3457000    1.4730643   -1.5837682 
 3458000    1.4973752   -1.6382816 
 3459000     1.242453   -1.2903739 
 3460000    1.3402509   -1.4943359 
 3461000    1.3777879   -1.4682095 
 3462000    1.0600701    -1.181086 
 3463000    1.1191259   -1.2481353 
 3464000    1.3657024   -1.4424705 
 3465000    1.6079912   -1.7112259 
 3466000    1.4452704   -1.5549004 
 3467000    1.1856602   -1.3384983 
 3468000    1.1054048   -1.2566413 
 3469000    1.4088351   -1.5331692 
 3470000    1.3680698   -1.4336992 
 3471000    1.3475378   -1.3920505 
 3472000    1.2309601   -1.3451813 
 3473000     1.285458   -1.3630206 
 3474000    1.0497826   -1.1427134 
 3475000    1.0877503    -1.186733 
 3476000    1.0033558   -1.0834277 
 3477000   0.92817227   -1.0474617 
 3478000    1.1501705   -1.3461329 
 3479000   0.87450882  -0.95021186 
 3480000    1.0999637   -1.2629936 
 3481000   0.79152884  -0.93549019 
 3482000    0.8763485   -1.0472507 
 3483000    1.2857296   -1.3638105 
 3484000    1.4028369   -1.5718216 
 3485000    1.5758007   -1.6963914 
 3486000    1.7015677   -1.8140696 
 3487000    1.2451511   -1.3414727 
 3488000    1.5271969    -1.559485 
 3489000    1.0409816   -1.1515303 
 3490000    1.0053231   -1.1405885 
 3491000   0.83748392  -0.96828573 
 3492000    1.3540464   -1.4127708 
 3493000    1.6954543   -1.6868293 
 3494000    1.3235261   -1.4098663 
 3495000    1.4852483    -1.652703 
 3496000    1.3812535   -1.5544493 
 3497000    1.5045295   -1.6015706 
 3498000    1.4521578   -1.5739101 
 3499000    1.2717618   -1.4128833 
 3500000    1.3950767   -1.5207267 
 3501000    1.4489988   -1.6436335 
 3502000    1.3420453    -1.514795 
 3503000     1.141556   -1.1886198 
 3504000    1.3895164   -1.4997187 
 3505000     1.305975    -1.383846 
 3506000    1.2482982   -1.3429832 
 3507000    1.1500387   -1.1863629 
 3508000     1.311804   -1.4805356 
 3509000     1.327429   -1.4492901 
 3510000    1.4998213   -1.5681803 
 3511000    1.3513998   -1.5047586 
 3512000    1.0983103   -1.2315806 
 3513000    1.0624673   -1.1692228 
 3514000    1.2874106   -1.4085042 
 3515000    1.3288765   -1.4771976 
 3516000    1.1903717   -1.3287168 
 3517000    1.3474654   -1.5321015 
 3518000    1.6254674   -1.6970963 
 3519000     1.326203   -1.4084765 
 3520000    1.4187801   -1.4947756 
 3521000    1.5209254   -1.5426598 
 3522000    1.3853223    -1.522307 
 3523000    1.4967403   -1.6679789 
 3524000    1.6397441   -1.7810386 
 3525000    1.3127092   -1.4592863 
 3526000    1.4144144   -1.4957769 
 3527000    1.4217719     -1.59983 
 3528000    1.5708406   -1.7102271 
 3529000    1.6131288    -1.702501 
 3530000    1.1987808   -1.3287527 
 3531000    1.1937983   -1.3119311 
 3532000    1.4727397   -1.5787463 
 3533000    1.0955088   -1.2649525 
 3534000    1.2232539   -1.4230878 
 3535000    1.3457199   -1.5003366 
 3536000    1.3373793   -1.4691019 
 3537000    1.3168843   -1.5108152 
 3538000    1.2088417   -1.3220773 
 3539000    1.3814364   -1.4645584 
 3540000    1.4855736   -1.6215469 
 3541000    1.2834001   -1.4448334 
 3542000    1.4275433   -1.4843176 
 3543000   0.81722465   -1.0312276 
 3544000   0.88868905   -1.0349852 
 3545000     1.148479   -1.2183803 
 3546000    1.6439249   -1.8041578 
 3547000    1.6604197   -1.8098626 
 3548000    1.3125565   -1.4792653 
 3549000    1.7636058   -1.8678593 
 3550000    1.4296784   -1.4884641 
 3551000     1.139035   -1.2795594 
 3552000    1.3982197   -1.4376451 
 3553000     1.299204   -1.4361662 
 3554000    1.3869672   -1.4618528 
 3555000   0.65512348  -0.76161924 
 3556000    1.2723459   -1.3860441 
 3557000    1.2409087   -1.3532288 
 3558000    0.8837394  -0.93346918 
 3559000    1.2251402   -1.3590821 
 3560000    1.0232059   -1.1110889 
 3561000    1.1759175   -1.3350801 
 3562000    1.4150429   -1.5539918 
 3563000     1.011973   -1.0637689 
 3564000    1.1180209   -1.2248196 
 3565000    1.4238846     -1.49404 
 3566000    1.2112122   -1.3421444 
 3567000    1.4747891   -1.5198609 
 3568000    1.2886488   -1.3579742 
 3569000    1.3465113   -1.4025158 
 3570000    0.9900634   -1.1129468 
 3571000    1.0513733    -1.232185 
 3572000    1.1416281   -1.2977293 
 3573000    1.2261103   -1.4099878 
 3574000    1.5374326   -1.5684312 
 3575000    1.2215924   -1.3590691 
 3576000    1.4356053   -1.5313111 
 3577000    1.2826124   -1.4102722 
 3578000    1.3275256   -1.5014821 
 3579000    1.5067795    -1.604693 
 3580000    1.3528072   -1.4486058 
 3581000    1.6007734   -1.6585985 
 3582000    1.0853737   -1.2039295 
 3583000    1.4666843   -1.6391366 
 3584000    1.4177813   -1.6095151 
 3585000    1.4891678    -1.601895 
 3586000    1.1578295   -1.2953777 
 3587000     1.370104   -1.5249671 
 3588000    1.2530232   -1.3465971 
 3589000    1.6912516      -1.8158 
 3590000    1.5981789   -1.7355245 
 3591000    1.2823684   -1.4200048 
 3592000    1.5606936   -1.7228266 
 3593000    1.5126574   -1.5890303 
 3594000    1.1661968   -1.2202965 
 3595000   0.91330967   -1.0650991 
 3596000   0.91770929   -1.0376199 
 3597000   0.80172312   -1.0030221 
 3598000    1.0227827   -1.1738655 
 3599000    1.0928688   -1.2034901 
 3600000    1.1100307   -1.1850371 
 3601000    1.4222871   -1.5628117 
 3602000    1.6638241   -1.7694254 
 3603000     1.350607   -1.5684131 
 3604000    1.2022732   -1.3512965 
 3605000    1.3025705   -1.4572117 
 3606000     1.615027   -1.7044019 
 3607000     1.229581   -1.3358224 
 3608000    1.3547755   -1.4745397 
 3609000     1.122277   -1.3482782 
 3610000    1.2266712   -1.4413712 
 3611000    1.1121519   -1.2564368 
 3612000   0.97173744    -1.115651 
 3613000   0.94837303  -0.93022253 
 3614000     0.862782  -0.98549233 
 3615000   0.82099832  -0.89026328 
 3616000    1.1862402    -1.303122 
 3617000    1.1637334   -1.3464302 
 3618000    1.1993691   -1.2773741 
 3619000    1.4363522   -1.5074833 
 3620000    1.2388866   -1.4112179 
 3621000    1.0924777   -1.2230288 
 3622000    1.4050693   -1.5915014 
 3623000    1.1580881   -1.2660161 
 3624000    1.1624249   -1.2594204 
 3625000    1.2620972   -1.2988252 
 3626000    1.4940857   -1.6106627 
 3627000    1.4136331   -1.5675934 
 3628000     1.243138   -1.4037593 
 3629000    1.3852921     -1.44285 
 3630000    1.4116402   -1.4805011 
 3631000    1.3374694   -1.4189018 
 3632000    1.6668889    -1.792707 
 3633000    1.5556472   -1.7664936 
 3634000    1.4096679    -1.536597 
 3635000    1.4065493   -1.5184471 
 3636000    1.8738662   -2.0133746 
 3637000    1.5624246   -1.6130493 
 3638000     1.272152   -1.5695827 
 3639000     1.146627   -1.2369577 
 3640000    1.1786013   -1.3660391 
 3641000    1.4582105    -1.556508 
 3642000    1.8670662    -1.987977 
 3643000    1.7050971   -1.8045127 
 3644000    1.7374306   -1.8072332 
 3645000    1.3009801   -1.4666245 
 3646000    1.3375484   -1.4440128 
 3647000    1.4835903   -1.6257278 
 3648000    1.5312647   -1.6028986 
 3649000    1.4121614    -1.502646 
 3650000    1.9267729    -2.002172 
 3651000    1.6854544   -1.7885398 
 3652000    1.2635856   -1.4873244 
 3653000    1.3467876   -1.4925801 
 3654000    1.4857053   -1.4900636 
 3655000    1.4477389   -1.5752693 
 3656000    1.3047166   -1.3923707 
 3657000    1.2948969    -1.376365 
 3658000     1.117134   -1.2543343 
 3659000    1.4777881   -1.5574427 
 3660000    1.6847244   -1.8053237 
 3661000    1.6196146   -1.8513634 
 3662000    1.6378417   -1.7381713 
 3663000    1.2352643   -1.4060818 
 3664000    1.3297832   -1.4019621 
 3665000    1.5356798    -1.696198 
 3666000    1.4176071   -1.5537853 
 3667000    1.3112282   -1.5145219 
 3668000    1.0896522     -1.14604 
 3669000    1.1021577   -1.2072241 
 3670000    1.3481727   -1.3814133 
 3671000    1.5759102   -1.7507083 
 3672000    1.3933078   -1.5503285 
 3673000    1.3721603   -1.4892473 
 3674000     1.079637   -1.1910693 
 3675000    1.5275105   -1.6414208 
 3676000    1.2531819    -1.375502 
 3677000    1.7559397   -1.9272624 
 3678000     1.595732    -1.783529 
 3679000    1.7973546   -1.9510523 
 3680000    1.4470488   -1.6604557 
 3681000    1.9483034   -2.0345668 
 3682000    1.4531194   -1.5111436 
 3683000    1.4602148   -1.5512501 
 3684000    1.3838562   -1.5205374 
 3685000    1.3293176   -1.4741045 
 3686000    1.1744106   -1.2026061 
 3687000    0.8751051  -0.98193059 
 3688000   0.81184946  -0.93907106 
 3689000    1.2305735   -1.3546442 
 3690000    1.1608608   -1.2551818 
 3691000    1.2459986   -1.3621106 
 3692000    1.1673402    -1.279933 
 3693000    1.4047902   -1.5606488 
 3694000     1.557404   -1.7213502 
 3695000    1.1704407    -1.367577 
 3696000    1.3053974   -1.4315886 
 3697000    1.4724016   -1.6133899 
 3698000    1.3735095   -1.4530929 
 3699000    1.3900558   -1.5040879 
 3700000    1.2791325   -1.3154077 
 3701000    1.4825585   -1.5932589 
 3702000    1.3381021   -1.4517391 
 3703000    1.8707175   -1.9773067 
 3704000    1.6339259   -1.7984798 
 3705000    1.5528332   -1.7242535 
 3706000    1.8109004   -1.8819351 
 3707000    1.8827143   -2.0596365 
 3708000    1.5342824   -1.6255556 
 3709000    1.6608899   -1.7712807 
 3710000    1.6880926   -1.8220067 
 3711000    1.6342273   -1.6867997 
 3712000    1.7329128   -1.8291601 
 3713000    1.8774915   -2.0803526 
 3714000    1.5672415   -1.6507577 
 3715000    1.2378014   -1.3436489 
 3716000    1.4204063   -1.4741561 
 3717000    1.4237466   -1.5523831 
 3718000    1.3747535   -1.4069635 
 3719000    1.6670907   -1.8190655 
 3720000    1.5577266   -1.6726009 
 3721000    1.5533174   -1.7140453 
 3722000    1.3474169   -1.5312845 
 3723000    1.4721569   -1.5679367 
 3724000    1.5834704   -1.6931199 
 3725000    1.3394688   -1.5751304 
 3726000    1.6508702   -1.7609604 
 3727000    1.1800082   -1.3269783 
 3728000    1.2655861   -1.4141299 
 3729000    1.2662377   -1.3817204 
 3730000      1.43049   -1.4878326 
 3731000    1.1829614   -1.2837785 
 3732000    1.0939731   -1.2579839 
 3733000     1.420714   -1.5324704 
 3734000    1.3675343   -1.4425257 
 3735000    1.2647427   -1.3101127 
 3736000    1.2765267   -1.3552168 
 3737000    1.1933655   -1.2742716 
 3738000    1.1366094   -1.1675497 
 3739000     1.426616    -1.596879 
 3740000    1.3504025   -1.4658063 
 3741000    1.4021517   -1.4907355 
 3742000    1.1797426   -1.3619567 
 3743000    1.5234406   -1.6217174 
 3744000    1.4602117   -1.7211302 
 3745000    1.6107966   -1.7044249 
 3746000    1.8021902    -1.936256 
 3747000    1.2733077   -1.4397417 
 3748000    1.2056809   -1.3539297 
 3749000    1.1914998   -1.3445142 
 3750000    1.6523076   -1.7392971 
 3751000    1.6214613    -1.754117 
 3752000    1.4005957    -1.463529 
 3753000     1.145617   -1.3091104 
 3754000    1.2539591   -1.3508485 
 3755000    1.2819497   -1.3656971 
 3756000    1.4207688   -1.4981889 
 3757000    1.1853051   -1.3985687 
 3758000    1.6226147   -1.7132888 
 3759000    1.4908995   -1.7036839 
 3760000    1.6964391   -1.7970911 
 3761000     1.484688    -1.481258 
 3762000    1.0259852   -1.1366753 
 3763000    1.0556001   -1.1716475 
 3764000   0.89290216  -0.91688807 
 3765000    1.0247967   -1.1834261 
 3766000    1.4503929   -1.5316864 
 3767000    1.2017175   -1.3978058 
 3768000   0.69940979  -0.83689061 
 3769000   0.86688757   -0.9265096 
 3770000    1.0524394   -1.0989248 
 3771000   0.86615921  -0.95280359 
 3772000    1.0848084   -1.2282001 
 3773000    0.9125509   -1.0877159 
 3774000    1.3250848   -1.3800364 
 3775000    1.2675416   -1.3668543 
 3776000    1.4288868   -1.4976062 
 3777000    1.3120496   -1.3973232 
 3778000    1.2221029   -1.2411898 
 3779000    1.5694958   -1.7076757 
 3780000   0.99774247   -1.0755289 
 3781000    1.2557883   -1.3830388 
 3782000    1.3455787    -1.432015 
 3783000   0.91920964   -1.0342206 
 3784000    1.1201522    -1.183848 
 3785000    1.0062787   -1.1651055 
 3786000   0.78611227   -0.8884876 
 3787000   0.95952037   -1.1027908 
 3788000    1.1722569   -1.2338517 
 3789000   0.86268147  -0.96911903 
 3790000    1.0121325   -1.0960131 
 3791000    1.2795121   -1.3645199 
 3792000     1.278769   -1.3733544 
 3793000    1.2660111   -1.3951918 
 3794000    1.4773454   -1.5719146 
 3795000    1.4844257   -1.5609003 
 3796000    1.2391755   -1.3570378 
 3797000    1.1933337   -1.3552976 
 3798000    1.5271622   -1.5456753 
 3799000    1.7170194   -1.7199864 
 3800000    1.5522642   -1.6490191 
 3801000    1.3493254   -1.4894135 
 3802000    1.4424728   -1.5225679 
 3803000   0.98363709   -1.1050468 
 3804000    1.0210273   -1.1577776 
 3805000    1.2201321   -1.2680756 
 3806000    1.5309773   -1.6563988 
 3807000    1.3593634    -1.515424 
 3808000    1.4364599   -1.5704796 
 3809000    1.1502541   -1.3005678 
 3810000    1.1356936   -1.2913675 
 3811000    1.1324786   -1.3304932 
 3812000    1.1958291   -1.2872368 
 3813000    1.0641238   -1.1706869 
 3814000    1.2068529   -1.3291933 
 3815000    1.3194149   -1.3635047 
 3816000    1.3535223   -1.4201862 
 3817000    1.1137618   -1.1864601 
 3818000     1.118598   -1.2353846 
 3819000   0.88157578  -0.98073553 
 3820000   0.95947544   -1.1407407 
 3821000   0.98213481   -1.1219458 
 3822000   0.97532506   -1.1115362 
 3823000   0.93621599  -0.98500107 
 3824000    1.1560601   -1.3039674 
 3825000   0.66849194   -0.8444782 
 3826000    1.0381339   -1.1672738 
 3827000    1.2561204   -1.3641278 
 3828000    1.0979574   -1.1803813 
 3829000    1.4105784   -1.5822462 
 3830000    1.6076968   -1.6784954 
 3831000    1.7205384   -1.8915306 
 3832000    1.6610041   -1.7830653 
 3833000     1.426061    -1.514922 
 3834000     1.481509   -1.6554291 
 3835000    1.1163131   -1.2523295 
 3836000    1.1506002   -1.3420964 
 3837000    1.4273722   -1.5420112 
 3838000    1.2568212   -1.3081497 
 3839000    1.1620996    -1.276735 
 3840000   0.83273852   -1.0681863 
 3841000    1.2427764   -1.2666596 
 3842000    1.1663151   -1.2644114 
 3843000    1.4054857   -1.5593066 
 3844000    1.2688287   -1.3610749 
 3845000    0.9419514   -1.0970573 
 3846000   0.77376045   -0.9279788 
 3847000    1.3389449   -1.4424504 
 3848000    1.2514917   -1.2977599 
 3849000    1.3076075   -1.3915491 
 3850000    1.1544526   -1.3547408 
 3851000    1.1839363   -1.3063435 
 3852000    1.3852733   -1.4511887 
 3853000     1.178153   -1.2862479 
 3854000    1.1468744    -1.239643 
 3855000    1.4949786   -1.5761876 
 3856000    1.3108085   -1.4388042 
 3857000   0.85330144  -0.90162267 
 3858000    0.9065669  -0.97199483 
 3859000   0.93582679   -1.0257958 
 3860000    1.2079857   -1.3615669 
 3861000    1.2431697   -1.3441956 
 3862000    1.3629805   -1.4639417 
 3863000    1.2422191   -1.3852335 
 3864000    1.3431594   -1.4595627 
 3865000    1.3577954   -1.4319805 
 3866000    1.1787639   -1.2078492 
 3867000    1.1754046   -1.2643745 
 3868000   0.77785795  -0.95516901 
 3869000   0.48215339  -0.66973374 
 3870000    1.0284523   -1.1151441 
 3871000    1.1236546   -1.1930835 
 3872000    0.8198473  -0.99260298 
 3873000   0.95372774  -0.97450943 
 3874000    1.0625977   -1.1404753 
 3875000      1.12501   -1.3226733 
 3876000    1.4305527     -1.53987 
 3877000      1.17311   -1.2957635 
 3878000    1.3097607   -1.3918684 
 3879000     1.106278   -1.3466012 
 3880000    1.3410062   -1.5127159 
 3881000    1.3917404   -1.5127613 
 3882000    1.4547813   -1.5920787 
 3883000    1.2822427   -1.3837234 
 3884000    1.1184509   -1.2348854 
 3885000    1.0205406   -1.1528462 
 3886000    1.3308802   -1.4293134 
 3887000    1.0950306    -1.293141 
 3888000    1.3224075   -1.4072499 
 3889000    1.1748551   -1.3115208 
 3890000      1.17738   -1.3470818 
 3891000    1.1443181   -1.2553762 
 3892000    1.3904079   -1.4943302 
 3893000    1.3723804   -1.5313466 
 3894000     1.620122   -1.7728349 
 3895000    1.5298312   -1.6727381 
 3896000    1.4510511   -1.5666224 
 3897000    1.6833508   -1.7729115 
 3898000    1.4654387   -1.5263668 
 3899000    1.4824659   -1.5126128 
 3900000     1.373804   -1.3900027 
 3901000    1.4970265    -1.576464 
 3902000    1.1900937   -1.2691664 
 3903000    1.4073906   -1.4337398 
 3904000    1.4719497   -1.5219722 
 3905000    1.5591962   -1.7361769 
 3906000    1.3817473   -1.6005405 
 3907000    1.5689296   -1.7052585 
 3908000    1.3495077   -1.4858252 
 3909000     1.328233   -1.4643996 
 3910000    1.3257309   -1.4355749 
 3911000    1.6096497   -1.7571727 
 3912000    1.6142108   -1.6930331 
 3913000    1.2013581    -1.338843 
 3914000     1.431113   -1.5355179 
 3915000    1.4786006    -1.597259 
 3916000    1.4263055   -1.5965324 
 3917000    1.1690962   -1.2634567 
 3918000    1.2916606   -1.3566976 
 3919000    1.2557786   -1.3699025 
 3920000    0.9403492   -1.1235703 
 3921000    1.1106431   -1.1618757 
 3922000   0.67647775  -0.79919583 
 3923000   0.86728838  -0.97228585 
 3924000   0.99183301   -1.0808721 
 3925000    1.3462003   -1.4180868 
 3926000    1.2273868   -1.3246791 
 3927000   0.91416662   -1.0723308 
 3928000    1.1894639   -1.3504398 
 3929000    1.5336622   -1.6367816 
 3930000    1.4226359   -1.5575337 
 3931000    1.3830072   -1.5405145 
 3932000   0.97440923   -1.0695417 
 3933000    1.4673076   -1.6004009 
 3934000    1.4374267   -1.5750381 
 3935000    1.3262161   -1.3998614 
 3936000    1.1138081   -1.2673118 
 3937000    1.6435657   -1.7538633 
 3938000    1.6072873   -1.6457384 
 3939000    1.4548876   -1.5693774 
 3940000    1.8033561   -1.9072367 
 3941000    1.2841789   -1.3560824 
 3942000    1.3787455   -1.4967839 
 3943000    1.5656205   -1.6062865 
 3944000    1.3609547   -1.5253807 
 3945000   0.95773074   -1.0561579 
 3946000    1.1996949   -1.2724494 
 3947000    1.1457449   -1.2034335 
 3948000    1.1822415   -1.3061388 
 3949000    1.4391303   -1.5099377 
 3950000    1.7144816   -1.8762503 
 3951000    1.4981783   -1.5927855 
 3952000     1.527476   -1.5969986 
 3953000    1.7182074   -1.7858272 
 3954000    1.8058362   -1.8437719 
 3955000    1.6149743   -1.6945248 
 3956000    1.5478139   -1.5737843 
 3957000    1.3536454   -1.5492986 
 3958000     1.327181   -1.4550384 
 3959000    1.4170984   -1.5866854 
 3960000    1.1258527   -1.3504018 
 3961000    1.4325622   -1.5419734 
 3962000    1.4869219   -1.6290409 
 3963000    1.5622685   -1.6471044 
 3964000     1.348292    -1.434465 
 3965000     1.328002   -1.4535609 
 3966000    1.4723288   -1.5384232 
 3967000    1.4243563   -1.5458398 
 3968000    1.5195332    -1.623988 
 3969000    1.5284056   -1.6167467 
 3970000    1.3364172   -1.3790586 
 3971000   0.82393964  -0.94386845 
 3972000    1.3733674   -1.4830542 
 3973000    1.3733772   -1.4876788 
 3974000    1.2726822   -1.3957157 
 3975000    1.1920565   -1.3489223 
 3976000    1.3846657   -1.5179849 
 3977000    1.1844938   -1.3570729 
 3978000    1.2251626   -1.2843076 
 3979000   0.89420737  -0.99135168 
 3980000   0.94908056   -1.0598131 
 3981000    1.1734116   -1.2517114 
 3982000    1.4848158   -1.6338801 
 3983000     1.441004   -1.4643693 
 3984000    1.3160703   -1.5256185 
 3985000    1.3708098    -1.369982 
 3986000    1.2688969   -1.4139898 
 3987000    1.4124118   -1.5853753 
 3988000    1.3145341   -1.4241523 
 3989000    1.4575062   -1.5402222 
 3990000     1.399972   -1.5156611 
 3991000    1.1024156   -1.2545204 
 3992000    1.0173263   -1.1034746 
 3993000    1.2265325   -1.3825983 
 3994000   0.87748543   -1.0316986 
 3995000    1.2257506   -1.3690749 
 3996000    1.2503507   -1.2851016 
 3997000    1.2801553   -1.2602306 
 3998000    1.1866488    -1.297217 
 3999000    1.2186836   -1.3250097 
 4000000    1.2231079   -1.3777848 
 4001000    1.0580775   -1.1438982 
 4002000    1.3435494   -1.4799026 
 4003000    1.4662967   -1.5546005 
 4004000    1.1480988    -1.314811 
 4005000    1.3889905   -1.5055943 
 4006000    1.2791447   -1.3619853 
 4007000     1.369396   -1.4930035 
 4008000    1.4647439    -1.653196 
 4009000     1.511997   -1.5856475 
 4010000    1.3183764   -1.4823362 
 4011000    1.0888641   -1.1783913 
 4012000    1.1717425   -1.2880052 
 4013000    1.1605503   -1.2908332 
 4014000   0.87747775   -1.0240269 
 4015000    1.3670539   -1.4234054 
 4016000    1.1001591   -1.2231436 
 4017000    1.5874644    -1.667619 
 4018000    1.3457914   -1.4241747 
 4019000    1.5016661   -1.6599139 
 4020000    1.4307579   -1.5349903 
 4021000    1.4603786   -1.5080565 
 4022000    1.3676893   -1.4906246 
 4023000     1.636828   -1.7219726 
 4024000    1.5126059   -1.6466091 
 4025000    1.4349828   -1.5333958 
 4026000    1.0527344   -1.1472074 
 4027000    1.0673076   -1.1346364 
 4028000    1.4106151   -1.4424565 
 4029000    1.3526484   -1.3906285 
 4030000    1.2817246   -1.4042654 
 4031000    1.3589421   -1.4982027 
 4032000    1.1366922   -1.3889403 
 4033000     1.261321   -1.3599091 
 4034000    1.2483502   -1.2885369 
 4035000    1.4336353   -1.4798255 
 4036000    1.4150618   -1.5032664 
 4037000    1.0854513    -1.210529 
 4038000    1.1573003    -1.309575 
 4039000    0.8610105  -0.97521042 
 4040000   0.91122438    -1.056647 
 4041000   0.92249591   -1.0267616 
 4042000     1.320256   -1.4401044 
 4043000    1.3319156   -1.4973671 
 4044000   0.97133967    -0.957352 
 4045000    1.1074024   -1.3097172 
 4046000    1.3554955   -1.4403312 
 4047000     1.388108   -1.5529355 
 4048000    1.2337152   -1.3822546 
 4049000    1.1289267   -1.2079562 
 4050000    1.2245687   -1.3326911 
 4051000    1.3404258   -1.4635436 
 4052000   0.84345479  -0.92451226 
 4053000    1.0375282   -1.1485688 
 4054000    1.1265676   -1.2267459 
 4055000    1.4480887   -1.6984519 
 4056000    1.2770698     -1.34755 
 4057000   0.98973423   -1.1158476 
 4058000   0.97241474   -1.2103748 
 4059000    0.9525453   -1.0089998 
 4060000    1.1039392    -1.284905 
 4061000      1.43235   -1.5860617 
 4062000    1.1865079   -1.2766128 
 4063000    1.3481748   -1.5059695 
 4064000    1.0853755   -1.1843396 
 4065000   0.54211916  -0.60454488 
 4066000   0.87418915   -1.0192299 
 4067000    1.3826327   -1.5299573 
 4068000    1.4088841   -1.4534512 
 4069000    1.6224046   -1.7323898 
 4070000    1.0749072   -1.2351423 
[...]
 4817000     1.472259   -1.6627338 
 4818000    1.2765764   -1.3344555 
 4819000    1.1135645   -1.2183954 
 4820000    1.2851578   -1.4413155 
 4821000    1.4035302    -1.519915 
 4822000   0.86128425   -1.0051647 
 4823000    1.0646553    -1.149551 
 4824000   0.96537932   -1.1148441 
 4825000    1.0147108   -1.0924616 
 4826000   0.82034965   -0.8791908 
 4827000    1.1442978   -1.2705561 
 4828000   0.91831817   -1.0721234 
 4829000    1.1404925   -1.2062357 
 4830000   0.94244677  -0.98937298 
 4831000   0.91422934    -1.092198 
 4832000   0.84991628  -0.97240426 
 4833000    1.0343025    -1.095173 
 4834000    1.0099012   -1.1272573 
 4835000    1.1051357   -1.2552162 
 4836000   0.98911634   -1.1032131 
 4837000    1.0756038   -1.2070728 
 4838000    1.0050602   -1.1946343 
 4839000     0.904083  -0.98162495 
 4840000    1.0177441   -1.2426991 
 4841000    1.0978154   -1.2373085 
 4842000    1.2542778   -1.3426445 
 4843000    1.4453585   -1.5743589 
 4844000    1.2696932   -1.3781845 
 4845000   0.98772886   -1.1711651 
 4846000    1.1611154   -1.2807741 
 4847000    1.3927958   -1.4585463 
 4848000    1.4744405   -1.5503094 
 4849000    1.2676456   -1.3779931 
 4850000    1.0881298   -1.2548181 
 4851000    1.1279404   -1.2568236 
 4852000   0.86664308  -0.97959948 
 4853000    1.3296485   -1.4669586 
 4854000    1.4292053   -1.5410767 
 4855000    1.1557083   -1.3034639 
 4856000    1.1632196   -1.3634225 
 4857000    1.1663487    -1.263083 
 4858000    1.2963426   -1.3922195 
 4859000    1.6327656   -1.7613198 
 4860000    1.4369258   -1.5925567 
 4861000    1.7550386   -1.8147632 
 4862000     1.669515   -1.7997526 
 4863000    1.2359813   -1.3864251 
 4864000     1.296026   -1.3841949 
 4865000    1.4989112   -1.6159326 
 4866000    1.5862909   -1.7431681 
 4867000     1.406594   -1.5210559 
 4868000    1.6228338   -1.6668694 
 4869000    1.8281032   -1.9362639 
 4870000    1.5851513   -1.7255328 
 4871000    1.4431298   -1.6498471 
 4872000    1.3967353   -1.4746416 
 4873000    1.1192185   -1.2460978 
 4874000    1.1738169   -1.3074455 
 4875000    1.0137445     -1.14298 
 4876000    1.2726671   -1.3386416 
 4877000     1.321766   -1.4596723 
 4878000    1.0675459   -1.0488978 
 4879000    1.5320703   -1.6491637 
 4880000    1.2741409   -1.4244871 
 4881000     1.339082   -1.4827836 
 4882000     1.773981   -1.9711171 
 4883000    1.3332699   -1.5299419 
 4884000    1.5345839   -1.6405105 
 4885000    1.6025423   -1.7634839 
 4886000     1.569784   -1.6230032 
 4887000    1.5122472   -1.6420541 
 4888000    1.4480776   -1.5471978 
 4889000    1.4715919   -1.5557857 
 4890000    1.2796822   -1.3393877 
 4891000    1.5620467    -1.715799 
 4892000    1.5514796   -1.7180586 
 4893000    1.3953574   -1.4569511 
 4894000      1.44104   -1.5879574 
 4895000    1.2118954   -1.3178869 
 4896000    1.1496583   -1.2966134 
 4897000    1.3172598   -1.4230514 
 4898000    1.0280445   -1.1726604 
 4899000   0.96013935    -1.010168 
 4900000    1.0749481   -1.2246154 
 4901000      1.05583   -1.1840475 
 4902000    1.3016919   -1.4051442 
 4903000    1.2058929   -1.2974038 
 4904000    1.2185773   -1.3226337 
 4905000    1.2297277   -1.4094825 
 4906000    1.4601193   -1.5818452 
 4907000    1.3195722   -1.5445523 
 4908000    1.8247837    -1.864302 
 4909000    1.6660765   -1.8355279 
 4910000    1.3086311    -1.492177 
 4911000     1.201842   -1.3367066 
 4912000    1.4202904   -1.4865943 
 4913000    1.0807405   -1.1982866 
 4914000    1.4352802   -1.4799275 
 4915000    1.3000757   -1.3650144 
 4916000    1.4741555   -1.5179643 
 4917000    1.3486971   -1.4507439 
 4918000    1.2490383   -1.3503212 
 4919000    1.4554794   -1.5448038 
 4920000    1.1447583   -1.2336425 
 4921000    1.2087159   -1.3113475 
 4922000    1.0175075   -1.1219551 
 4923000    1.2001099   -1.2897094 
 4924000    1.2758685   -1.3838427 
 4925000    1.2141144   -1.3174281 
 4926000    1.4097392   -1.5852439 
 4927000     1.267376   -1.3183048 
 4928000    1.3724487   -1.4907603 
 4929000    1.3160844   -1.4179949 
 4930000    1.3284723   -1.5002513 
 4931000    1.5262622   -1.6440604 
 4932000    1.1494659   -1.2716671 
 4933000    1.1881609   -1.2334599 
 4934000    1.4733754   -1.6698962 
 4935000    1.2727726   -1.4585838 
 4936000    1.2598776   -1.2781954 
 4937000    1.2898039   -1.4475624 
 4938000    1.4649898   -1.6509585 
 4939000    1.4458995   -1.6621879 
 4940000    1.2978984   -1.4909676 
 4941000    1.4984147   -1.6367416 
 4942000    1.3508724   -1.4906983 
 4943000    1.1661955   -1.3647093 
 4944000    1.0766124   -1.2998457 
 4945000    1.0185762   -1.1294769 
 4946000    1.3290788   -1.4118596 
 4947000    1.5206926   -1.6245885 
 4948000    1.2593274   -1.3967824 
 4949000    1.0185236   -1.0833071 
 4950000    1.2027859   -1.3344569 
 4951000    1.1524971   -1.3211148 
 4952000    1.4168308   -1.4840699 
 4953000   0.71937417  -0.92126038 
 4954000    1.2127699   -1.3703634 
 4955000    1.7294686   -1.8058028 
 4956000    1.2946145   -1.4147401 
 4957000    1.4722678   -1.6458439 
 4958000    1.6736075   -1.8661088 
 4959000    1.7279074   -1.8902529 
 4960000    1.3074807   -1.5161485 
 4961000    1.0836677   -1.2109558 
 4962000    1.2798017   -1.4318612 
 4963000    1.2395801   -1.3856008 
 4964000    1.0036922   -1.1473457 
 4965000    1.0414802   -1.2292805 
 4966000    1.2062756   -1.3377806 
 4967000    1.3926366   -1.4676622 
 4968000   0.94736848   -1.0844981 
 4969000   0.90002925   -1.0772467 
 4970000    1.0307256   -1.0986383 
 4971000   0.74087217  -0.83803208 
 4972000    1.1731481   -1.3050311 
 4973000    1.0296866   -1.2053243 
 4974000    1.2655326   -1.3840235 
 4975000   0.95515117   -1.0662102 
 4976000    1.0265742   -1.1805014 
 4977000    1.3160811   -1.4395999 
 4978000    1.4803809   -1.6105526 
 4979000    1.5364045   -1.6783878 
 4980000    1.4832558    -1.571603 
 4981000    1.3887393   -1.5246115 
 4982000    1.2576504   -1.3480907 
 4983000    1.1431701   -1.2363999 
 4984000    1.3232811   -1.4915939 
 4985000    1.6850808    -1.856933 
 4986000    1.5339555     -1.73694 
 4987000     1.657371   -1.8044041 
 4988000    1.5070508   -1.6232592 
 4989000    1.3084942   -1.4714825 
 4990000    1.4509577   -1.5305804 
 4991000    1.2216357   -1.3576509 
 4992000     1.123073    -1.298807 
 4993000    1.0137912   -1.1304641 
 4994000    1.1757908   -1.2712078 
 4995000    1.2185742   -1.3718405 
 4996000    1.1281745   -1.2339079 
 4997000    1.2677655   -1.3585588 
 4998000    1.2116952   -1.3123461 
 4999000     1.249473   -1.4298645 
 5000000    1.2236381   -1.3806568 
 5001000     1.704824   -1.7669662 
 5002000    1.5710767   -1.7183883 
 5003000    1.4755181    -1.594577 
 5004000    1.5128571   -1.5832544 
 5005000    1.3881456   -1.4770001 
 5006000    1.2431178   -1.4313365 
 5007000    1.1752602   -1.2873916 
 5008000    1.3309341   -1.4709606 
 5009000   0.99222516   -1.1658106 
 5010000    1.3114976   -1.4558081 
 5011000     1.370552   -1.4472273 
 5012000    1.8475127   -1.9284291 
 5013000    1.5828895   -1.6585583 
 5014000    1.6337826   -1.7859733 
 5015000    1.4483253   -1.6250165 
 5016000    1.6113451   -1.6755373 
 5017000    1.6762717   -1.7553615 
 5018000    1.5167765   -1.6736423 
 5019000    1.0317689   -1.2003535 
 5020000    1.3303958   -1.4238772 
 5021000    1.2866239   -1.4680662 
 5022000    1.2801676   -1.3203828 
 5023000    1.4304996   -1.6007656 
 5024000    1.4018625   -1.5739279 
 5025000   0.97307017   -1.1254134 
 5026000    1.3176744   -1.4020245 
 5027000    1.5932606   -1.7403546 
 5028000    1.3094814   -1.5190366 
 5029000    1.5749712   -1.5644829 
 5030000    1.4817066   -1.6688734 
 5031000    1.5648255   -1.6986273 
 5032000    1.6914084   -1.7477525 
 5033000    1.5247612   -1.6590584 
 5034000    1.5684897   -1.7064504 
 5035000    1.6516851   -1.8666623 
 5036000    1.5428947   -1.7483447 
 5037000    1.3449033   -1.4250723 
 5038000    1.4280681   -1.5350574 
 5039000    1.5029325   -1.6236677 
 5040000    1.4955665   -1.5383657 
 5041000    1.2931171   -1.4737783 
 5042000    1.6113644   -1.8101485 
 5043000     1.666261    -1.763394 
 5044000    1.4292166   -1.5886431 
 5045000    1.3628318   -1.4740807 
 5046000    1.4592633   -1.6193765 
 5047000    1.4159491   -1.4760633 
 5048000    1.2832389   -1.4303481 
 5049000    1.4941544   -1.6472827 
 5050000    1.2639361   -1.4186771 
 5051000    1.2817607   -1.3768982 
 5052000    1.1872155   -1.3506721 
 5053000     1.020188   -1.1131247 
 5054000   0.74091775  -0.87895083 
 5055000   0.93184144   -1.0600398 
 5056000    1.1560663   -1.2205672 
 5057000    1.4346032   -1.5623033 
 5058000     1.296468   -1.4194135 
 5059000   0.96663715   -1.0715068 
 5060000    1.3853853   -1.6211028 
 5061000    1.6997723   -1.8192841 
 5062000    1.8671237   -1.9703987 
 5063000    1.6509266      -1.7864 
 5064000    1.8654555    -1.999031 
 5065000    1.7202303   -1.8369367 
 5066000    1.5969449   -1.7451368 
 5067000    1.1827939   -1.2513938 
 5068000    1.4774002   -1.7011423 
 5069000    1.2666321   -1.4000497 
 5070000    1.2313274    -1.292183 
 5071000    1.2642055   -1.3747998 
 5072000    1.3982862   -1.5317164 
 5073000    1.0075412   -1.1754272 
 5074000   0.88839575  -0.97173465 
 5075000   0.98093573   -1.0569507 
 5076000    1.0544964   -1.2180663 
 5077000    1.1536811   -1.2100312 
 5078000    1.1169743    -1.234563 
 5079000    1.4030463   -1.5266682 
 5080000    1.0874305   -1.1903803 
 5081000    1.4564011   -1.5482067 
 5082000    1.1512873   -1.2490708 
 5083000    1.2989194    -1.429387 
 5084000    1.2526567   -1.3099999 
 5085000    1.2601767   -1.4349307 
 5086000    1.2370252   -1.4518109 
 5087000    1.1179724   -1.2090456 
 5088000    1.0092434   -1.0250603 
 5089000   0.94071618   -0.9770617 
 5090000   0.87925356  -0.93762494 
 5091000    1.2669309   -1.4011986 
 5092000    1.3726592   -1.5519182 
 5093000    1.8343272   -1.8915504 
 5094000    1.4068621   -1.5698842 
 5095000    1.0586176    -1.207478 
 5096000    1.0078578   -1.0789864 
 5097000    1.2475358   -1.2593361 
 5098000    1.3301261   -1.4178782 
 5099000    1.1790067   -1.2816143 
 5100000    1.4246326   -1.5299676 
 5101000    1.0077375   -1.1842226 
 5102000    1.2781715   -1.4298319 
 5103000    1.2849897   -1.3788067 
 5104000    1.4064464   -1.5376774 
 5105000    1.0120492   -1.2493208 
 5106000    1.1552905   -1.2906988 
 5107000    1.2405008   -1.3038488 
 5108000    1.2755047    -1.399927 
 5109000    1.3359551   -1.4869812 
 5110000    1.8138977   -1.9304204 
 5111000    1.8119837   -1.9640602 
 5112000    1.8118235   -1.9352349 
 5113000    1.5488421   -1.6262062 
 5114000    1.9258172   -2.1011644 
 5115000    1.6566044   -1.7332502 
 5116000    1.5517892   -1.7470767 
 5117000    1.3426636   -1.5114476 
 5118000    1.1583437   -1.2956591 
 5119000    1.0230774    -1.028738 
 5120000    1.2254081   -1.3400973 
 5121000    1.4215707    -1.547047 
 5122000    1.4524774   -1.6296309 
 5123000     1.376205   -1.5189448 
 5124000    1.4890741   -1.7072366 
 5125000    1.1402554    -1.295666 
 5126000    1.4182259   -1.4734233 
 5127000    1.3187328   -1.4874659 
 5128000    1.4304751   -1.5934529 
 5129000    1.3902819   -1.5543913 
 5130000    1.5939261   -1.7188568 
 5131000    1.8536297   -1.9849663 
 5132000    1.4770503   -1.5861727 
 5133000    1.3147156   -1.4590012 
 5134000    1.3988994   -1.4542413 
 5135000    1.2122406   -1.2874926 
 5136000    1.2084977   -1.2413917 
 5137000    1.2189105   -1.2575505 
 5138000    1.5835483   -1.6899576 
 5139000    1.1221466   -1.3032408 
 5140000    1.3266666   -1.4722488 
 5141000     1.695111   -1.7885802 
 5142000    1.1700751   -1.2328294 
 5143000    1.1401841   -1.2095603 
 5144000    1.2924136   -1.5145537 
 5145000    1.5817113   -1.6821948 
 5146000     1.520689   -1.6459867 
 5147000    1.8429866   -1.9414356 
 5148000    1.4051007   -1.5354605 
 5149000     1.341284   -1.4804987 
 5150000    1.2344948   -1.4043441 
 5151000    1.4353865   -1.5538655 
 5152000    1.3787504   -1.5868272 
 5153000    1.3599017   -1.5641626 
 5154000      1.51456   -1.7069559 
 5155000    1.5451421   -1.5883573 
 5156000    1.8154015   -1.9265179 
 5157000     1.559213   -1.7298116 
 5158000    1.6767798   -1.7868557 
 5159000     1.630803   -1.6799914 
 5160000    1.7044496   -1.6888773 
 5161000    1.4618008   -1.6595736 
 5162000    1.3879915    -1.545971 
 5163000    1.3908658   -1.5775467 
 5164000    1.4192599    -1.465597 
 5165000    1.4546317   -1.6179138 
 5166000    1.4148408   -1.4891959 
 5167000     1.103019   -1.1806193 
 5168000    1.3044163   -1.4105633 
 5169000    1.3895288    -1.552165 
 5170000    1.3251297   -1.4531057 
 5171000    1.1753537    -1.226364 
 5172000    1.1943356   -1.3525783 
 5173000    1.1666208   -1.3226052 
 5174000    1.5840406   -1.7178914 
 5175000    1.6134771   -1.7126257 
 5176000    1.3350335   -1.5409472 
 5177000    1.1817818   -1.2796785 
 5178000    1.2378316   -1.3873904 
 5179000    1.0765541   -1.1733225 
 5180000    1.1906003   -1.3581022 
 5181000    1.1034351   -1.2501999 
 5182000     1.275535   -1.4068813 
 5183000    1.2751043   -1.3621691 
 5184000    1.4946282   -1.7212015 
 5185000    1.3791776   -1.3418912 
 5186000    1.4827834   -1.5430023 
 5187000    1.5132136   -1.6274681 
 5188000    1.2225691   -1.3729143 
 5189000    1.3016371   -1.4558923 
 5190000    1.4734731   -1.5741713 
 5191000    1.5458311   -1.6378312 
 5192000    1.2941623   -1.4741259 
 5193000    1.3745073   -1.4993325 
 5194000    1.4847752    -1.539937 
 5195000    1.3681615    -1.472049 
 5196000    1.7019268   -1.7942235 
 5197000    1.1489359   -1.3032546 
 5198000    1.4573336   -1.6348214 
 5199000     2.071672   -2.2858675 
 5200000    2.0723012   -2.1583557 
 5201000    1.7636487   -1.8511022 
 5202000    1.7122037   -1.8130007 
 5203000    1.6586454   -1.7175969 
 5204000    1.4615755   -1.5207836 
 5205000    1.4172656   -1.4805443 
 5206000    1.6591949   -1.8044566 
 5207000    1.3971427   -1.4744027 
 5208000    1.0388664   -1.2191883 
 5209000    1.1643848   -1.2778492 
 5210000    1.2863046    -1.456496 
 5211000    1.6273793   -1.7050153 
 5212000    1.8016827   -1.8895137 
 5213000    1.5913393   -1.6733765 
 5214000    1.7563395   -1.8404087 
 5215000    1.7263499   -1.8393239 
 5216000    1.5838382   -1.7137254 
 5217000    1.7320489   -1.8616063 
 5218000    1.6708979   -1.8420102 
 5219000    1.1319015   -1.2417438 
 5220000    1.0701364   -1.2014145 
 5221000    1.4198659   -1.5171324 
 5222000    1.2923366   -1.3855172 
 5223000    1.2934887   -1.3750618 
 5224000    1.2376928   -1.3877571 
 5225000    1.5515054   -1.7530241 
 5226000    1.6758496   -1.8201827 
 5227000    1.4441329    -1.619179 
 5228000    1.2896603   -1.4166321 
 5229000     1.447656   -1.5734817 
 5230000    1.5030114   -1.6390656 
 5231000    1.7310672   -1.7428996 
 5232000    1.5508961   -1.6326208 
 5233000    1.4172985   -1.4895926 
 5234000    1.3041156   -1.4571213 
 5235000    1.6552924   -1.7854538 
 5236000    1.6812108   -1.7651025 
 5237000    1.7754334   -1.8617216 
 5238000     1.755256   -1.9799437 
 5239000    2.0650658   -2.2741914 
 5240000    1.6399306   -1.7827804 
 5241000    1.7601164   -1.7873929 
 5242000    1.7087149   -1.7875339 
 5243000    1.8431618   -1.9978599 
 5244000    1.8969784   -2.0470311 
 5245000    1.7328984   -1.8038067 
 5246000     1.476616   -1.6024286 
 5247000    1.5127325   -1.6383782 
 5248000    1.4651103   -1.5297114 
 5249000    1.6332246   -1.6998195 
 5250000     1.685816   -1.7526127 
 5251000    1.3657907   -1.5140359 
 5252000    1.4950971   -1.5419682 
 5253000    1.5127108   -1.5039693 
 5254000     1.486692   -1.5740115 
 5255000    1.5209825   -1.6178632 
 5256000    1.2488975   -1.3915121 
 5257000    1.6196965    -1.815924 
 5258000    1.4073066   -1.4984854 
 5259000    1.5021984    -1.601229 
 5260000    1.3615394    -1.541519 
 5261000    1.9241363   -1.8780316 
 5262000    1.8050568   -1.8011234 
 5263000    1.5016273   -1.7024157 
 5264000    1.3875953   -1.3869407 
 5265000    1.2698421   -1.3958598 
 5266000    1.5116186   -1.6759546 
 5267000     1.456135   -1.5231065 
 5268000     1.396774   -1.4637598 
 5269000    1.6402353   -1.7367846 
 5270000    1.4116921   -1.5834225 
 5271000     1.736446   -1.8518152 
 5272000    1.4709837   -1.5983902 
 5273000    1.6307372   -1.7007249 
 5274000    1.4226029   -1.5760606 
 5275000    1.7447679   -1.8050547 
 5276000    1.7290159   -1.8784269 
 5277000    1.9539609     -2.07495 
 5278000    1.4558286   -1.6127954 
 5279000    2.0100709   -2.1255245 
 5280000    1.8381191   -2.0033499 
 5281000    1.4648399   -1.5323649 
 5282000    1.3720843   -1.5353834 
 5283000    1.2386245   -1.4037629 
 5284000    1.5315645    -1.688445 
 5285000     1.241116   -1.4075293 
 5286000    1.4443073   -1.5283261 
 5287000    1.2002386     -1.33953 
 5288000    1.3620021   -1.4527755 
 5289000    1.5618079   -1.5790149 
 5290000    1.7324445   -1.8900577 
 5291000    1.7797975   -1.9251412 
 5292000    1.7311675   -1.8151859 
 5293000    1.5464353   -1.6342781 
 5294000    2.0688306   -2.1783056 
 5295000    1.8163856    -1.855733 
 5296000     1.865925   -2.0506215 
 5297000    1.5287429    -1.695729 
 5298000    1.2661564   -1.3673126 
 5299000    1.1375225   -1.2112835 
 5300000    1.1496215   -1.2296516 
 5301000    1.4754452   -1.5947832 
 5302000    1.2838663   -1.4274355 
 5303000    1.3175261   -1.3943471 
 5304000    1.3331794   -1.4769126 
 5305000    1.2679047   -1.4088521 
 5306000    1.5162277     -1.53683 
 5307000    1.8787782   -2.0193122 
 5308000    1.6101598   -1.7850361 
 5309000    1.4267615   -1.5287743 
 5310000    1.4912714   -1.5865518 
 5311000     1.272459   -1.3114081 
 5312000    1.6287185   -1.6929576 
 5313000    1.3137328   -1.4811419 
 5314000    1.4307087   -1.5735291 
 5315000     1.443497   -1.6475104 
 5316000    1.4547296   -1.6025092 
 5317000    1.9357664   -1.9784507 
 5318000    1.7648271   -1.8832048 
 5319000    1.7458042    -1.952745 
 5320000    1.5356332   -1.7089648 
 5321000    1.5065103   -1.6019763 
 5322000     1.322435   -1.3513731 
 5323000     1.326411   -1.5114469 
 5324000    1.6385247   -1.6890224 
 5325000    1.7368041   -1.9180053 
 5326000    1.6671333   -1.7483548 
 5327000     1.472531   -1.5713715 
 5328000    1.4936424   -1.6074535 
 5329000    1.6456714   -1.7945181 
 5330000    1.6429944   -1.7261745 
 5331000    1.5936623   -1.7048182 
 5332000    1.7556064   -1.9320527 
 5333000    1.5591763   -1.6964905 
 5333334    1.7058747   -1.7546447 
Loop time of 597247 on 8 procs for 3333334 steps with 9487 atoms

Performance: 0.723 ns/day, 33.180 hours/ns, 5.581 timesteps/s
97.1% CPU use with 8 MPI tasks x no OpenMP threads

MPI task timing breakdown:
Section |  min time  |  avg time  |  max time  |%varavg| %total
---------------------------------------------------------------
Pair    | 54005      | 56961      | 59893      |1138.1 |  9.54
Bond    | 104.78     | 111.04     | 116.53     |  38.1 |  0.02
Kspace  | 89122      | 95160      | 1.0001e+05 |1420.4 | 15.93
Neigh   | 9121.4     | 9129.7     | 9138.6     |   6.7 |  1.53
Comm    | 793.27     | 830.09     | 871.72     | 121.9 |  0.14
Output  | 0.25014    | 0.38525    | 1.2553     |  53.0 |  0.00
Modify  | 4.3286e+05 | 4.3495e+05 | 4.3804e+05 | 265.5 | 72.83
Other   |            | 104.1      |            |       |  0.02

Nlocal:    1185.88 ave 1218 max 1158 min
Histogram: 2 0 1 1 0 0 2 0 1 1
Nghost:    9907.5 ave 10020 max 9836 min
Histogram: 2 0 1 1 2 1 0 0 0 1
Neighs:    1.04967e+06 ave 1.08216e+06 max 1.01613e+06 min
Histogram: 1 1 1 0 1 1 0 1 1 1

Total # of neighbors = 8397335
Ave neighs/atom = 885.141
Ave special neighs/atom = 1.60325
Neighbor list builds = 253488
Dangerous builds = 0
#write_restart KOHrestart
#write_dump all custom KOHxyz.xyz id type x y z q



Total wall time: 165:59:49
