LAMMPS (3 Mar 2020)
units               real
dimension           3
newton              off
#processors         * * *
boundary            p p f
atom_style          full  #mpirun -np 8 ./lmp_mpi -in KOHionicInput

##force field         sudo ln -s /lib/x86_64-linux-gnu/libc.so.6 /lib64/libc.so.6
pair_style          lj/cut/coul/long 12.0
pair_modify mix arithmetic tail yes
dihedral_style      opls                    #echo 0 > /proc/sys/kernel/yama/ptrace_scope
special_bonds lj/coul 0.0 0.0 0.5
bond_style          harmonic
angle_style         harmonic
kspace_style        pppm 1.0e-6
kspace_modify       slab 3.0


##atom definition
read_restart        KOH1V.2000000
  restoring atom style full from restart
  orthogonal box = (-17.1536 -17.8555 -34.6187) to (18.003 17.554 34.6187)
  2 by 2 by 2 MPI processor grid
  restoring pair style lj/cut/coul/long from restart
  restoring bond style harmonic from restart
  restoring angle style harmonic from restart
  restoring dihedral style opls from restart
  9487 atoms
  5085 bonds
  2520 angles
  2 = max # of 1-2 neighbors
  1 = max # of 1-3 neighbors
  1 = max # of 1-4 neighbors
  2 = max # of special neighbors
  special bonds CPU = 0.0105344 secs
  read_restart CPU = 0.0718604 secs
#read_data           1mkohdata.lmp
include             KOHpair.lmp
pair_coeff    1    1      0.076482     3.130000  # K K
pair_coeff    1    2      0.000000     0.000000  # K Hw
pair_coeff    1    3      0.109029     3.147700  # K Ow
pair_coeff    2    2      0.000000     0.000000  # Hw Hw
pair_coeff    2    3      0.000000     0.000000  # Hw Ow
pair_coeff    3    3      0.155425     3.165500  # Ow Ow
pair_coeff    4    4      0.086000     3.400000


##setting
neighbor            2 bin
neigh_modify delay 0 every 1 check yes
group ele type 4
1792 atoms in group ele
group sol type 1 2 3
7695 atoms in group sol

group elec2 molecule 3002
896 atoms in group elec2
group elec1 molecule 3001
896 atoms in group elec1
group K type 1
45 atoms in group K
group OH id 7606:7694:2
45 atoms in group OH
group water id 47:7604:3
2520 atoms in group water

#minimize 1.0e-4 1.0e-6 100 1000
#reset_timestep 0

fix SHAKE sol shake 0.0001 20 0 b 1
  45 = # of size 2 clusters
  2520 = # of size 3 clusters
  0 = # of size 4 clusters
  0 = # of frozen angles
  find clusters CPU = 0.000641029 secs

compute 2 elec2 property/atom q
compute 4 elec2 reduce sum c_2
#variable chargeDensity1 equal c_4*0.0009765625

compute 3 elec1 property/atom q
compute 5 elec1 reduce sum c_3
#variable chargeDensity2 equal c_5*0.0009765625

#compute 1 sol temp

compute Kden K chunk/atom bin/1d z lower 1.0
fix DENSITYFIXK K ave/chunk 2 5 500000 Kden density/number file Kdesnity08V

compute OHden OH chunk/atom bin/1d z lower 1.0
fix DENSITYFIXOH OH ave/chunk 2 5 500000 OHden density/number file OHdesnity08V

compute waterden water chunk/atom bin/1d z lower 1.0
fix DENSITYFIXwater water ave/chunk 2 5 500000 waterden density/number file waterdesnity08V


#compute displacementSCN SCN displace/atom
#compute averageDisplacementSCN SCN reduce ave c_displacementSCN[3]
#variable perpendicularDisplacementSCN equal c_averageDisplacementSCN/150

#compute displacementC4C1im C4C1im displace/atom
#compute averageDisplacementC4C1im C4C1im reduce ave c_displacementC4C1im[3]
#variable perpendicularDisplacementC4C1im equal c_averageDisplacementC4C1im/150




dump 1 elec2 custom 200000 elec208 q
dump_modify 1 flush yes
dump 2 elec1 custom 200000 elec108 q  #ele
dump_modify 2 flush yes
dump 4 all custom 200000 ionicTraj_nvt.lammpstrjTEST08V id mol type x y z q
dump_modify 4 flush yes
#dump 2 all xyz 500 lmp.xyz
#dump 4a all custom 500 wer id type x y z q



thermo_style        custom step c_4 c_5
thermo_modify flush yes
#thermo_style         custom step temp
thermo              1000
restart 500000 KOH08V  #10000

##run


run_style           verlet
#timestep            0.001
velocity ele set 0.0 0.0 0.0
fix 0 ele setforce 0.0 0.0 0.0
#fix 1 sol nvt temp 320.0 320.0 100.0  #298
#run 60000
#unfix 1
#reset_timestep 0
timestep            1.5
#fix 2 sol nvt temp 320.0 300.0 100.0  #298
#run 2000000 upto start 0 stop 2000000
#write_restart KOHrestart
#fix e1 all conp 1 1.979 801 802 -1.5 1.5 inv iter #0.5 1.979
#run 10000
#unfix 2
#reset_timestep 0
#timestep            1.0
fix 3 sol nvt temp 300.0 300.0 100.0
fix e1 all conp 1 1.979 3001 3002 -0.4 0.4 inv iter #0.5 1.979
run 5333334 upto start 0 stop 5333334
PPPM initialization ...
  using 12-bit tables for long-range coulomb (../kspace.cpp:332)
  G vector (1/distance) = 0.280035
  grid = 45 45 150
  stencil order = 5
  estimated absolute RMS force accuracy = 0.000332382
  estimated relative force accuracy = 1.00096e-06
  using double precision KISS FFT
  3d grid and FFT values/proc = 115200 66125
WARNING: Using pair tail corrections with non-periodic system (../pair.cpp:206)
Unused restart file global fix info:
  fix style: nvt, fix ID: 2
Neighbor list info ...
  update every 1 steps, delay 0 steps, check yes
  max neighbors/atom: 2000, page size: 100000
  master list distance cutoff = 14
  ghost atom cutoff = 14
  binsize = 7, bins = 6 6 10
  1 neighbor lists, perpetual/occasional/extra = 1 0 0
  (1) pair lj/cut/coul/long, perpetual
      attributes: half, newton off
      pair build: half/bin/newtoff
      stencil: half/bin/3d/newtoff
      bin: standard
Per MPI rank memory allocation (min/avg/max) = 20.22 | 23.16 | 26.27 Mbytes
Step c_4 c_5 
 2000000            0            0 
 2001000    1.0449693   -1.1717065 
 2002000    1.6110798   -1.7636765 
 2003000    2.2642625   -2.3385499 
 2004000     2.024194   -2.2301691 
 2005000       1.9841   -2.0881554 
 2006000    2.0195198   -2.1749928 
 2007000    2.1679528   -2.2132607 
 2008000    1.6648233   -1.7755015 
 2009000    1.3809821   -1.5471025 
 2010000    1.4597557   -1.5219771 
 2011000     1.496234   -1.5835188 
 2012000    1.8971059   -1.9402189 
 2013000    1.8733368   -1.8498309 
 2014000    1.7685083   -1.8812769 
 2015000    1.8798027   -2.0051833 
 2016000     2.341192   -2.4736588 
 2017000    2.2477881   -2.3956494 
 2018000    2.2153479    -2.348415 
 2019000    1.7598357   -1.9135625 
 2020000    1.8398678    -1.947666 
 2021000    1.9060657   -2.0494507 
 2022000    1.7619557   -1.9231439 
 2023000    1.5950099   -1.7108344 
 2024000    1.7879398   -1.8692478 
 2025000    1.7550615   -1.8382039 
 2026000     1.935958   -2.0115004 
 2027000     1.999623   -2.1115266 
 2028000     2.167593   -2.2906337 
 2029000     1.792723    -1.911685 
 2030000    1.6326434   -1.7731653 
 2031000    1.3539065    -1.484677 
 2032000    1.4631798   -1.5444384 
 2033000    1.7351854   -1.8252809 
 2034000    1.8959705   -2.0239242 
 2035000    1.8485289   -2.0350106 
 2036000    1.8828273   -2.0334189 
 2037000    1.7708846   -1.8218393 
 2038000    2.0237115   -2.2144747 
 2039000    2.1187814   -2.2734854 
 2040000    1.4660979    -1.600412 
 2041000    1.2787783   -1.4224935 
 2042000    1.5283936   -1.6322983 
 2043000    1.5670794   -1.5526468 
 2044000     1.458367   -1.5939488 
 2045000    1.4346983   -1.5573148 
 2046000    1.8209041    -1.954281 
 2047000    1.8106054   -1.9864939 
 2048000    1.6870541   -1.8871961 
 2049000    1.7416877   -1.8147902 
 2050000    1.6586597   -1.7963582 
 2051000    1.9007833   -2.0005114 
 2052000     1.951959   -2.0393867 
 2053000     1.779942   -1.9214007 
 2054000    1.4495476   -1.5854675 
 2055000    1.3956278   -1.5935428 
 2056000    1.9131981   -1.9646976 
 2057000     1.809845   -1.9556879 
 2058000    2.0025038   -2.1490332 
 2059000    1.6687423   -1.8088337 
 2060000    1.7197637   -1.8682373 
 2061000    2.0999254   -2.1825045 
 2062000    2.4917335   -2.5868201 
 2063000     2.205189   -2.3159277 
 2064000    2.2923236   -2.3976315 
 2065000    2.3772866    -2.572451 
 2066000    2.1636591   -2.2407544 
 2067000    1.9071984   -1.9771985 
 2068000    2.0535685   -2.1472267 
 2069000    1.9751933   -2.1037027 
 2070000    2.0660817   -2.1392103 
 2071000    1.7293213   -1.8587505 
 2072000     2.017871   -2.1748463 
 2073000    2.1473443   -2.2299694 
 2074000    2.1701234   -2.3195918 
 2075000    1.7053548   -1.8363725 
 2076000    1.8060453   -1.9615281 
 2077000    1.8628272   -1.9982441 
 2078000     2.168979   -2.3286117 
 2079000    1.8430614   -1.8639357 
 2080000    2.0630116   -2.1639483 
 2081000    2.5160174   -2.5551356 
 2082000    2.1520398   -2.2304813 
 2083000    1.9341028   -2.0466753 
 2084000    2.0174462    -2.093393 
 2085000    2.0876346   -2.2360065 
 2086000     2.052174   -2.2380539 
 2087000    2.0641943   -2.1401053 
 2088000    1.8903828   -2.0423749 
 2089000    2.1376294   -2.3075422 
 2090000     1.874344   -1.9816225 
 2091000    2.2642273   -2.2623187 
 2092000    1.7688307   -1.9562257 
 2093000    1.8565097   -1.9201167 
 2094000    1.5932207     -1.66574 
 2095000    1.8299678   -1.9957278 
 2096000    1.8569954   -2.0098667 
 2097000    2.1090843   -2.2473251 
 2098000    2.0065061   -2.1989351 
 2099000    1.8134829   -2.0014224 
 2100000     1.761025   -1.8977382 
 2101000    1.6357157   -1.7753151 
 2102000     1.665885   -1.7153455 
 2103000    1.7321741   -1.8451086 
 2104000    1.6806528     -1.83615 
 2105000    1.6960786   -1.7970431 
 2106000    1.8074419   -1.8981208 
 2107000    1.7714732   -1.8999482 
 2108000    1.6060754   -1.7304454 
 2109000    1.7451901   -1.8942152 
 2110000     1.752751   -1.8081969 
 2111000    1.9534853   -2.0646288 
 2112000    1.9629863   -2.1318052 
 2113000    1.8769508   -2.0142848 
 2114000    1.6406118   -1.6794249 
 2115000    1.5389479   -1.6281374 
 2116000    1.7398632   -1.8200007 
 2117000    1.6226208   -1.6883379 
 2118000    1.4688309   -1.5807379 
 2119000    1.8241659    -1.852177 
 2120000    1.7021976   -1.8690231 
 2121000    1.6712199   -1.7819851 
 2122000    1.9279748   -2.0843494 
 2123000    1.5039421   -1.6732244 
 2124000    2.0208494   -2.1211407 
 2125000    1.9103351   -2.0080905 
 2126000    1.9900884   -2.1260668 
 2127000    2.1721748   -2.2658619 
 2128000    2.0890795   -2.2511584 
 2129000    1.8066926   -1.9343492 
 2130000    1.6987508   -1.7981293 
 2131000    1.7207661   -1.8336098 
 2132000    1.8213609   -1.9829368 
 2133000    1.4661925   -1.5499886 
 2134000    1.4224262   -1.5678374 
 2135000    1.7184374   -1.9007599 
 2136000    1.6901859     -1.83981 
 2137000    2.1383652   -2.2927808 
 2138000    2.1304115   -2.1621008 
 2139000    2.0273604   -2.2669176 
 2140000    1.9832127   -2.1377103 
 2141000    1.6594523   -1.8038039 
 2142000     1.406652    -1.473193 
 2143000    1.4687936   -1.5949898 
 2144000    1.9099694   -1.9648642 
 2145000    1.9743703   -2.0681712 
 2146000    2.0137221    -2.156445 
 2147000    1.5981942    -1.809593 
 2148000    1.7811511   -1.9124621 
 2149000    1.8550176   -1.9783877 
 2150000    1.5216399   -1.6010791 
 2151000    1.6312903   -1.6874242 
 2152000    1.6274392   -1.7391099 
 2153000    1.8059585   -1.9112196 
 2154000    1.9063325   -1.9940427 
 2155000    1.6958832   -1.8991644 
 2156000    1.7596963   -1.8495761 
 2157000    1.7525912   -1.8633696 
 2158000    1.7026818    -1.786096 
 2159000    2.0437119   -2.0646079 
 2160000    1.7490634   -1.8657737 
 2161000    1.4244206   -1.5107513 
 2162000    1.4164086   -1.6022268 
 2163000    1.6107474   -1.7071473 
 2164000    1.6945226   -1.8774375 
 2165000    1.8458113   -2.0022859 
 2166000    1.8326671   -1.9110117 
 2167000    1.7740797   -1.8915574 
 2168000    1.9483379    -2.016427 
 2169000    1.8912046   -1.9328534 
 2170000    1.4853151   -1.5961123 
 2171000    1.3780438   -1.4729992 
 2172000    1.8919234   -2.0053445 
 2173000     1.760955   -1.9343831 
 2174000     1.751912   -1.9207519 
 2175000    1.5757324   -1.6480721 
 2176000    1.5250388   -1.7264568 
 2177000    1.5935519   -1.6958879 
 2178000    1.8967635   -2.0494346 
 2179000     2.029498   -2.1329103 
 2180000    1.7852925   -1.8441633 
 2181000    1.5236368   -1.6559444 
 2182000    1.2706582   -1.3272045 
 2183000    1.7067908   -1.8109816 
 2184000    1.7095833   -1.8258821 
 2185000    1.6653567   -1.8107615 
 2186000    1.6634285   -1.7512412 
 2187000    1.7486594   -1.8648924 
 2188000    1.5537478    -1.646458 
 2189000    1.9165271   -2.0222609 
 2190000    1.9313763   -1.9645044 
 2191000    2.0418387   -2.1810819 
 2192000    2.3897926   -2.4502792 
 2193000    2.1718969   -2.2711324 
 2194000    1.9367225   -2.0994182 
 2195000    2.0613465   -2.0598423 
 2196000    1.8147252   -1.9576725 
 2197000    1.9752315   -2.0774517 
 2198000    1.8337564   -1.9285543 
 2199000    1.5915592    -1.720966 
 2200000    1.4740129    -1.642802 
 2201000    1.6803262   -1.7474525 
 2202000    1.3350642   -1.5059938 
 2203000    1.8415411   -1.8794266 
 2204000    1.7626703   -1.9164176 
 2205000    2.1727912   -2.2602599 
 2206000     1.642421   -1.7596805 
 2207000    1.8556474   -1.8823077 
 2208000    1.9535584   -2.1267525 
 2209000    2.2787446   -2.3614716 
 2210000     2.326341   -2.4255745 
 2211000    2.2038744   -2.3395836 
 2212000    1.8640159   -1.9754747 
 2213000    2.0664397   -2.2090183 
 2214000    1.7703549   -1.9310565 
 2215000    1.9008905   -1.9306733 
 2216000    1.9680701   -2.1323473 
 2217000    1.6885049   -1.7670914 
 2218000    1.7656788   -1.9186139 
 2219000     2.034222   -2.2125785 
 2220000    1.5622515   -1.6697228 
 2221000    1.9010479   -1.9572648 
 2222000    2.0041034   -2.0504647 
 2223000    1.7356121   -1.8797692 
 2224000     2.083627   -2.1684773 
 2225000     1.830294   -1.8968136 
 2226000    1.8906983     -1.98345 
 2227000    1.8957578   -1.9691925 
 2228000    1.6425815   -1.8051554 
 2229000    1.9072387   -1.9555626 
 2230000    1.6242461   -1.7659912 
 2231000    1.8826495   -1.9876583 
 2232000    1.9093279    -2.062948 
 2233000    1.5877371   -1.7057459 
 2234000    1.4476177   -1.5725876 
 2235000    1.0803615   -1.2675006 
 2236000    1.6722791   -1.8332463 
 2237000    1.7113865   -1.8085578 
 2238000    1.8055939   -1.9248319 
 2239000    1.6941042   -1.8384745 
 2240000    2.0337734   -2.1027457 
 2241000    1.5854415   -1.7967484 
 2242000    1.5588244   -1.6462961 
 2243000    1.7303592   -1.8540402 
 2244000    1.8086824    -1.922716 
 2245000    1.4953471   -1.5944965 
 2246000    1.9553912   -2.0603439 
 2247000    1.7100074   -1.6514089 
 2248000    1.6428021   -1.7717746 
 2249000    1.6185886   -1.7604772 
 2250000    1.8717954   -1.9402794 
 2251000    2.0190687   -2.1491771 
 2252000    1.8815712   -2.0114241 
 2253000    1.7268459   -1.8178917 
 2254000    1.6883212   -1.8321407 
 2255000    1.9277909   -2.0719607 
 2256000    1.8285002   -1.8997062 
 2257000     1.701495   -1.8665992 
 2258000    1.3334983   -1.4038795 
 2259000    1.6738853   -1.7968145 
 2260000    2.1702163   -2.2727192 
 2261000    2.2367743   -2.4288523 
 2262000    2.2287126   -2.3005789 
 2263000    1.8927245   -1.9854208 
 2264000    2.1591781   -2.2325693 
 2265000    1.6427108   -1.7712539 
 2266000    1.7693924   -1.8728586 
 2267000    1.6763959   -1.7025542 
 2268000     1.634175   -1.7618028 
 2269000    2.2551587   -2.3681438 
 2270000    1.9254926   -2.0034437 
 2271000    2.0332701   -2.2188427 
 2272000    1.8171933   -1.9936873 
 2273000    2.1049434   -2.2525172 
 2274000    1.8691958   -1.9398666 
 2275000    1.7850705   -1.9574094 
 2276000    1.9955786   -2.1897846 
 2277000    1.9232952   -1.9834682 
 2278000    2.0752644   -2.1817017 
 2279000    2.0480419   -2.2316438 
 2280000    1.6670993   -1.8808771 
 2281000    1.9527826   -2.0500401 
 2282000    1.7128722   -1.8051741 
 2283000    1.5954835   -1.6699014 
 2284000    1.7801373   -1.9064861 
 2285000    1.7393264   -1.8557862 
 2286000    1.8723455   -2.0321561 
 2287000      1.72991   -1.8869776 
 2288000    1.4781666   -1.6191412 
 2289000    1.4159601   -1.5027342 
 2290000    1.7342729   -1.8668153 
 2291000    1.7689587   -1.9258998 
 2292000    1.6488563   -1.7876633 
 2293000    1.7833399   -1.8074618 
 2294000    1.4514804   -1.5783232 
 2295000    1.3377667   -1.4862117 
 2296000    1.4156174   -1.4989927 
 2297000    1.7798182   -1.8868191 
 2298000     1.657429   -1.7649174 
 2299000    1.7000112   -1.8588066 
 2300000     1.930891   -2.0314526 
 2301000      1.81228   -1.9651682 
 2302000    1.7145893   -1.8544322 
 2303000    1.6555294   -1.6842708 
 2304000    1.7396623   -1.9177826 
 2305000    1.6972811   -1.7995188 
 2306000    1.6129736   -1.7907676 
 2307000    1.6637209   -1.7999507 
 2308000    1.8979964   -2.0959374 
 2309000    1.8596561   -1.9905596 
 2310000    1.6281723   -1.6885911 
 2311000     1.491005   -1.6659856 
 2312000    1.6876038   -1.8410959 
 2313000    1.5740799   -1.7256814 
 2314000    1.6925253   -1.8953051 
 2315000    1.9089389   -1.9759298 
 2316000    1.8380757   -1.9290519 
 2317000    1.5530036   -1.7141736 
 2318000    2.0319185   -2.2164082 
 2319000    1.7499082   -1.7750602 
 2320000    1.5261708     -1.53943 
 2321000    1.7820469   -1.8891297 
 2322000    1.7978271   -1.8780063 
 2323000    1.5860709   -1.6527835 
 2324000    1.6394893   -1.7259274 
 2325000    1.8197813   -1.9523411 
 2326000     1.827909   -1.9839594 
 2327000    1.4270406   -1.5481029 
 2328000    1.3083637   -1.4334721 
 2329000    1.8543611   -1.9887738 
 2330000    1.6977706   -1.8451448 
 2331000    1.7334145    -1.821537 
 2332000    1.7499638    -1.871566 
 2333000    1.5323397   -1.6341184 
 2334000    1.1098921   -1.2225208 
 2335000    1.6847781   -1.8017605 
 2336000    1.5512277    -1.675746 
 2337000    1.5418123   -1.6356295 
 2338000    1.7693686   -1.9212151 
 2339000    1.8699489   -2.0248837 
 2340000    1.4944072   -1.6082597 
 2341000    1.7103872   -1.8160751 
 2342000     1.611154   -1.7860061 
 2343000    1.4200587   -1.5376951 
 2344000    1.7229817   -1.8429237 
 2345000     1.744558   -1.9597508 
 2346000    1.9936856   -2.1369504 
 2347000    1.8844436   -2.0207996 
 2348000     1.890965   -1.9373685 
 2349000    1.6522172   -1.8074499 
 2350000    1.8463605   -1.9433919 
 2351000    1.7440284   -1.8675551 
 2352000     1.285314   -1.4805485 
 2353000    1.2428973   -1.3741132 
 2354000    1.3246554   -1.5156365 
 2355000    1.5137984   -1.7021161 
 2356000    1.4269279   -1.5399625 
 2357000    1.5962598   -1.7511384 
 2358000    1.6740334   -1.6831984 
 2359000    1.7130056   -1.9102205 
 2360000    1.7517242    -1.773846 
 2361000    1.4739236   -1.6421917 
 2362000    1.6810018   -1.7866097 
 2363000    1.1867201   -1.3568292 
 2364000    1.9491243   -2.1058326 
 2365000    1.4107236   -1.5854702 
 2366000    1.7975298   -1.9129696 
 2367000    1.5275699   -1.6747222 
 2368000    1.6275102   -1.7192991 
 2369000    2.0907877     -2.24185 
 2370000    1.9041162   -2.0117557 
 2371000    1.5647381   -1.7411755 
 2372000     1.707592   -1.8806391 
 2373000     1.556618   -1.6896404 
 2374000    1.7183271   -1.7961464 
 2375000    1.7686071   -1.9087187 
 2376000    1.4796502   -1.7726782 
 2377000    1.5288147   -1.6909567 
 2378000    1.8757294   -2.0059831 
 2379000    1.8784157   -1.9821822 
 2380000    1.9402362   -2.0316186 
 2381000    1.7387386   -1.7856402 
 2382000    1.6267474   -1.7854564 
 2383000     1.518955   -1.5931323 
 2384000    1.6334589   -1.8031197 
 2385000    1.5960529   -1.6546462 
 2386000    1.5343036   -1.7100851 
 2387000    1.5864063   -1.6792908 
 2388000    1.5063898   -1.6181247 
 2389000     1.594746   -1.7469725 
 2390000    1.7556245   -1.7813376 
 2391000    1.5435477   -1.6263787 
 2392000    2.0119285   -2.1531333 
 2393000    1.5899486   -1.7158364 
 2394000    1.7264764   -1.8117176 
 2395000    1.6241538   -1.7091642 
 2396000    1.7172301   -1.8780115 
 2397000    1.9819525   -2.0332889 
 2398000    1.9605789   -2.1024057 
 2399000    1.8894877   -2.1223088 
 2400000    1.9630027   -2.0475021 
 2401000    1.5752667   -1.7463537 
 2402000     1.619175   -1.8377895 
 2403000    1.5775918    -1.662256 
 2404000    1.4029715   -1.4964467 
 2405000    1.1126281   -1.2981134 
 2406000    1.4854197   -1.5830945 
 2407000    1.5520277   -1.6322991 
 2408000    1.5942703   -1.7052543 
 2409000    1.9112513   -1.9718242 
 2410000    1.8964976    -2.025353 
 2411000    1.7117801    -1.861472 
 2412000    1.5432985   -1.6886355 
 2413000     1.608583   -1.7301758 
 2414000    1.4141155   -1.5664646 
 2415000    1.4453893   -1.4704135 
 2416000    1.3143368   -1.4059871 
 2417000    1.6945352   -1.9211967 
 2418000    2.3045793    -2.410813 
 2419000    1.8517588   -1.9662615 
 2420000     1.664874   -1.7869939 
 2421000    1.8136608   -2.0012895 
 2422000    1.2332248   -1.3718382 
 2423000    1.6606195   -1.7692084 
 2424000    1.4478801   -1.6416222 
 2425000    1.7580957   -1.8944115 
 2426000    2.1953324   -2.2739209 
 2427000    1.7567347   -1.7929599 
 2428000    1.9461128   -2.0611448 
 2429000    1.9796524   -2.1104856 
 2430000    1.6296183   -1.7309107 
 2431000    1.2103899   -1.3222839 
 2432000    1.3680473   -1.4093531 
 2433000    1.3141867   -1.3751234 
 2434000    1.5980947    -1.669681 
 2435000    1.5665359    -1.669685 
 2436000      1.66268   -1.8264788 
 2437000    1.4619196    -1.620921 
 2438000    1.6783858   -1.8211072 
 2439000    1.4341376   -1.5302221 
 2440000    1.2847393   -1.4864984 
 2441000    1.2700071   -1.3767933 
 2442000    1.3327129   -1.4496829 
 2443000    1.6110886   -1.7403291 
 2444000    1.7658893   -1.9447077 
 2445000     1.752798   -1.8442078 
 2446000    1.5905418   -1.7322135 
 2447000    1.7124188   -1.8820112 
 2448000     1.619464   -1.7485001 
 2449000    1.4174301   -1.4533422 
 2450000    1.6266278   -1.7446504 
 2451000    1.5584003   -1.6805841 
 2452000    1.6762103   -1.7183061 
 2453000    1.8135383   -1.9667333 
 2454000    1.8897305   -2.0791648 
 2455000     1.659907   -1.7802377 
 2456000    1.8340227   -1.9633771 
 2457000    1.6013223   -1.7298411 
 2458000    1.3558972   -1.5301253 
 2459000    1.7211463   -1.8446141 
 2460000     1.580133   -1.6314348 
 2461000    1.5459644   -1.6071325 
 2462000    1.2901087    -1.419492 
 2463000    1.3854399   -1.6251061 
 2464000    1.7785496   -1.7951821 
 2465000    2.1517211   -2.2200043 
 2466000    2.0715628    -2.213474 
 2467000    2.1196286   -2.2862269 
 2468000    1.6124915   -1.7572746 
 2469000    1.8324833   -1.8379363 
 2470000    1.5316723   -1.7570595 
 2471000      1.57833   -1.7261872 
 2472000    1.5641937   -1.7358091 
 2473000    1.7499115   -1.9410752 
 2474000     2.230916   -2.3749246 
 2475000    1.9045851   -2.0354994 
 2476000    1.7918939   -1.8318625 
 2477000    1.6737242    -1.848097 
 2478000    1.8753635   -1.9953033 
 2479000     1.759139    -1.892571 
 2480000    1.7119121   -1.9156443 
 2481000    1.6014943   -1.7201164 
 2482000    1.8088277   -1.9381442 
 2483000    2.1374893   -2.2768876 
 2484000    1.9313556   -2.0830014 
 2485000    1.8580507   -1.9992798 
 2486000    1.6472331   -1.7216814 
 2487000     1.378974   -1.5597899 
 2488000    1.8002933   -1.9554637 
 2489000    2.0257605   -2.1052172 
 2490000    2.2072807   -2.2184343 
 2491000    1.7740755   -1.9039487 
 2492000    1.7248628   -1.8964807 
 2493000    1.7119365    -1.815934 
 2494000    1.6706641   -1.6651031 
 2495000    1.3607469   -1.4721336 
 2496000    1.0222301   -1.1580586 
 2497000    1.4224999   -1.5003144 
 2498000    1.2148099   -1.3411585 
 2499000    1.4446774   -1.5359655 
 2500000    1.1271157   -1.3001755 
 2501000    1.5001763   -1.6327813 
 2502000    1.8127307   -1.9545789 
 2503000    1.9132201   -1.9570618 
 2504000    1.7937112   -1.9250172 
 2505000    2.0542424   -2.2363848 
 2506000    1.9364025   -2.1077242 
 2507000    1.8779676   -2.0725314 
 2508000    1.9221882   -2.0735582 
 2509000    1.7808986   -1.8793919 
 2510000    1.6908817   -1.7997769 
 2511000    1.4735989   -1.6310425 
 2512000    1.5034449   -1.5841181 
 2513000    1.3594595   -1.4286218 
 2514000    1.7625616   -1.9068932 
 2515000     1.858919   -1.9234078 
 2516000    1.5283293   -1.6113203 
 2517000    1.7195115   -1.8202534 
 2518000    1.6063933   -1.8240749 
 2519000    2.0901058   -2.2164257 
 2520000    1.9650883   -2.1127837 
 2521000    1.7345296   -1.8261611 
 2522000     1.660286   -1.7749706 
 2523000    1.7379724   -1.8667558 
 2524000    1.6040527   -1.7330458 
 2525000     2.188767   -2.2298324 
 2526000    2.0656984   -2.1292544 
 2527000    1.7830886   -1.9545412 
 2528000    1.7359999   -1.8203709 
 2529000    1.9119032   -2.0340612 
 2530000    1.7479847   -1.9102256 
 2531000    1.5790539   -1.6964832 
 2532000    1.8723386   -2.0091159 
 2533000    2.0234965    -2.211406 
 2534000    1.6800556   -1.7529252 
 2535000    1.8359655   -1.9261282 
 2536000    2.1038583   -2.2624052 
 2537000    2.4137214    -2.472767 
 2538000    1.7012866   -1.8780535 
 2539000    1.5375333   -1.7233033 
 2540000    1.3573948   -1.4643798 
 2541000    1.8578859   -2.0118062 
 2542000    1.9484498   -2.0840399 
 2543000    1.9367553   -2.0676071 
 2544000    1.9380561   -2.0602104 
 2545000    2.1755673   -2.3193745 
 2546000    1.8706648   -1.9905324 
 2547000    1.8237904   -1.9510837 
 2548000    1.8048915   -1.8855735 
 2549000     1.766486   -1.9237682 
 2550000    2.0585726    -2.147079 
 2551000    1.7333201    -1.933947 
 2552000    1.8740774   -2.0073732 
 2553000    1.7454736   -1.9432677 
 2554000    2.1699493    -2.286997 
 2555000    1.8712482   -1.9702723 
 2556000    1.9662283   -2.0788226 
 2557000    1.9312072   -2.0525214 
 2558000    1.8362699   -1.9352771 
 2559000    1.4440439   -1.5662837 
 2560000    1.5038401   -1.5679853 
 2561000    1.7335871   -1.8154168 
 2562000     1.966322   -2.0405511 
 2563000    1.9834277   -2.1073606 
 2564000    1.6577784   -1.8681024 
 2565000     1.641963   -1.7119456 
 2566000     1.884696   -2.0625101 
 2567000    1.9759244   -2.1669671 
 2568000    1.6895699   -1.7645372 
 2569000    1.8347036   -1.9401445 
 2570000    1.8611671   -1.9769216 
 2571000    1.7336874   -1.8111351 
 2572000      1.77162   -1.8953605 
 2573000    1.5670939   -1.7160795 
 2574000    1.3942359   -1.5744022 
 2575000    1.5719003   -1.8013563 
 2576000    1.4902605   -1.5986817 
 2577000    1.7246336   -1.7466454 
 2578000    2.1470713   -2.2082503 
 2579000    1.9656013   -2.0637083 
 2580000     2.242114   -2.3530651 
 2581000    1.9773396   -2.1058498 
 2582000    1.9000381   -2.0300906 
 2583000    2.1560267   -2.3291777 
 2584000    2.0109855   -2.1051135 
 2585000    1.8898012   -2.0013931 
 2586000    1.8633132   -1.9854138 
 2587000    1.7215362   -1.8506999 
 2588000    1.9708317   -2.0836019 
 2589000    1.9636166   -2.1084049 
 2590000    1.4645999   -1.6346775 
 2591000    1.8744832   -1.9716245 
 2592000    1.5492334   -1.6920906 
 2593000    1.8367478     -1.95662 
 2594000    1.9441859   -2.0511387 
 2595000    2.0738001   -2.2126402 
 2596000    1.9911314   -2.0729183 
 2597000     2.054704   -2.0859398 
 2598000    1.6725889   -1.7565524 
 2599000    1.7855036   -1.9443906 
 2600000    1.8136656   -2.0319025 
 2601000    1.9195868   -2.0029108 
 2602000    1.9908275   -2.1744524 
 2603000    1.8915801     -2.09301 
 2604000    1.5476432    -1.695853 
 2605000     1.237309   -1.3782688 
 2606000    1.6848789   -1.7255896 
 2607000    1.5621899   -1.6685501 
 2608000    1.5660255   -1.6814273 
 2609000    1.9645259   -2.0986613 
 2610000    1.8744178   -1.9816822 
 2611000    1.8809279   -2.0476346 
 2612000    2.2490916   -2.4245753 
 2613000    2.4105018   -2.5951001 
 2614000    2.2564735   -2.3223812 
 2615000    1.9914222   -2.1574852 
 2616000    2.0602093   -2.1832279 
 2617000     1.962498   -1.9947473 
 2618000     1.899681   -2.0351455 
 2619000    1.8357539   -2.0274148 
 2620000    1.6892149   -1.8463865 
 2621000    1.9084854   -2.0687528 
 2622000    2.2461205   -2.3360845 
 2623000     2.128694   -2.2182822 
 2624000    1.8888345   -2.0017884 
 2625000    1.8221094   -1.9225661 
 2626000    1.6902002   -1.8166458 
 2627000    1.6063187   -1.7499336 
 2628000    1.9362621    -2.103874 
 2629000    1.9559253   -2.0619736 
 2630000    1.8240846   -1.9390037 
 2631000    1.8090377   -1.9924882 
 2632000    2.0907312    -2.189524 
 2633000    2.1918816   -2.2858531 
 2634000    1.9859719   -2.1360292 
 2635000    1.7942323   -1.8798539 
 2636000    1.7629812   -1.9373991 
 2637000    1.8045886   -1.9552728 
 2638000    2.0411715   -2.2395136 
 2639000     2.221836   -2.3827237 
 2640000    1.6846819   -1.7919567 
 2641000    1.9365767   -2.0902081 
 2642000    1.6958937   -1.7981268 
 2643000    1.8804613   -2.0566619 
 2644000     1.881618   -2.0381781 
 2645000    1.6207356   -1.7000837 
 2646000    1.4734277   -1.5586068 
 2647000    1.5626316   -1.7516356 
 2648000    1.7122335   -1.7872113 
 2649000    2.1368747   -2.3145452 
 2650000    1.9900928   -2.0057637 
 2651000    2.0414205   -2.2641397 
 2652000    2.1571614   -2.3281557 
 2653000    2.3222294   -2.5434642 
 2654000    1.9831066   -2.1519861 
 2655000    1.5351442   -1.7073834 
 2656000    1.7888927   -1.9755135 
 2657000    1.3092621   -1.5269832 
 2658000    1.6517206   -1.8001596 
 2659000    1.2813834    -1.389212 
 2660000    1.6655713   -1.7438832 
 2661000    1.6907288   -1.7776221 
 2662000    1.9106079   -1.9501198 
 2663000    1.9190714   -2.0206403 
 2664000    1.9849621   -2.2047807 
 2665000    2.1279574   -2.2854569 
 2666000    1.7888873   -1.8928422 
 2667000    2.0338215   -2.1111105 
 2668000    2.1608902   -2.3125396 
 2669000    2.0832627   -2.1903681 
 2670000    2.1832006   -2.3423009 
 2671000    1.8456409   -1.9044202 
 2672000    1.5082219   -1.6146909 
 2673000    1.6480747    -1.614503 
 2674000    2.0497661   -2.2146055 
 2675000    1.6379785   -1.7776185 
 2676000    1.3852007    -1.532471 
 2677000    1.8893912   -2.0314006 
 2678000    2.2183489   -2.3017455 
 2679000    2.1368491   -2.2824305 
 2680000    1.8060228   -2.0298179 
 2681000    2.2132054    -2.365471 
 2682000    1.9704339   -2.1152677 
 2683000    1.7549473   -1.9412694 
 2684000    1.9385833   -2.0618047 
 2685000    1.9639371   -2.1259538 
 2686000    1.5313192   -1.5951139 
 2687000    1.7063581   -1.9500369 
 2688000    1.7387408   -1.8252887 
 2689000    1.8281244   -1.9939747 
 2690000    1.9191776   -2.1061597 
 2691000    2.0245059   -2.2162972 
 2692000    1.9147057   -2.0762358 
 2693000    1.9389884   -2.0285408 
 2694000    1.5025451   -1.6828178 
 2695000    1.7801843   -1.8443149 
 2696000    1.8415901   -2.0236542 
 2697000     2.133613    -2.319293 
 2698000    1.8068167   -1.9204123 
 2699000    2.1034746   -2.2546816 
 2700000    1.9732149   -2.1554941 
 2701000    1.8534622   -2.0158812 
 2702000     1.912666   -2.0741353 
 2703000    1.8744681   -1.9971757 
 2704000    1.8844294    -1.956614 
 2705000    1.7560234   -1.9379375 
 2706000    1.6879884    -1.770878 
 2707000    1.7722407   -1.9644321 
 2708000    1.8160944   -1.8979442 
 2709000    1.7331077   -1.8300277 
 2710000    1.7577934   -1.8939475 
 2711000    1.5110414   -1.6022638 
 2712000    1.5429198   -1.6806791 
 2713000    1.5881328   -1.7392671 
 2714000    1.7502981   -1.8930116 
 2715000    2.1092318   -2.1879961 
 2716000    1.7669213   -1.9025929 
 2717000    2.1548106   -2.2946948 
 2718000    1.9921817    -2.103278 
 2719000    1.7911295   -1.8893038 
 2720000    1.4713127   -1.6016823 
 2721000    1.9194589   -2.0132604 
 2722000    1.5989607   -1.7527092 
 2723000      2.04762    -2.172462 
 2724000    2.0151303   -2.0866085 
 2725000    2.1435655   -2.2798747 
 2726000     1.651449   -1.8730642 
 2727000    1.6235559   -1.7203787 
 2728000    1.8881778   -2.0437249 
 2729000    2.1064631   -2.1699675 
 2730000     1.480393   -1.6233351 
 2731000    1.4696881   -1.6143316 
 2732000     1.889412   -2.0012829 
 2733000    2.0955629   -2.2953215 
 2734000    1.8178084   -2.0577644 
 2735000    2.1030243   -2.2504294 
 2736000    2.1000199   -2.2820047 
 2737000    2.0209508   -2.2838977 
 2738000    1.6249484   -1.7908872 
 2739000    1.8096117   -1.9241442 
 2740000    1.8486274   -2.0110392 
 2741000    1.9029574   -2.0243116 
 2742000    1.6650641   -1.7813216 
 2743000    1.7538277   -1.8650259 
 2744000    1.7792265   -1.8696112 
 2745000    2.0593771   -2.2331635 
 2746000    1.9236428   -2.0397553 
 2747000    2.1314364   -2.3156461 
 2748000    2.1258483   -2.2652152 
 2749000     2.093207   -2.2029666 
 2750000    1.9771041   -2.0495352 
 2751000    2.0023729   -2.0747044 
 2752000    2.0170366   -2.0842592 
 2753000    2.0009703   -2.1968118 
 2754000    2.0410418   -2.2253561 
 2755000    1.5887499   -1.7388721 
 2756000    1.4369287   -1.5776963 
 2757000    1.6525105    -1.790502 
 2758000    1.6984767   -1.8330028 
 2759000    1.4788777   -1.6578522 
 2760000    1.3163889   -1.5174228 
 2761000    1.3733134   -1.5261762 
 2762000    1.7985682   -1.9891908 
 2763000    1.8982564   -2.0506845 
 2764000    2.0352778   -2.2059259 
 2765000    1.9095147   -1.9970963 
 2766000    1.6594533    -1.761045 
 2767000    1.8008276   -1.9971625 
 2768000    1.9293464    -2.138365 
 2769000      2.02736   -2.1559997 
 2770000    1.5071119    -1.598683 
 2771000    1.5845276   -1.7927529 
 2772000    1.8767832   -1.9857223 
 2773000    1.9055132   -2.0042675 
 2774000    1.6629473    -1.822542 
 2775000    1.7476553   -1.8027758 
 2776000    1.6267125   -1.7548938 
 2777000    1.9002185   -2.0349851 
 2778000    2.0007609   -2.0906399 
 2779000    1.9634512   -2.1406469 
 2780000    2.0707229   -2.3015682 
 2781000    1.6390998   -1.6846498 
 2782000    1.5136989   -1.6908319 
 2783000     1.608963   -1.6711043 
 2784000    1.7771323    -1.945544 
 2785000     1.583893   -1.6513061 
 2786000    1.4670111   -1.6192453 
 2787000    1.6170501   -1.6817586 
 2788000    1.5890829   -1.7181993 
 2789000    1.8061188   -1.9660604 
 2790000     1.824231   -1.9286334 
 2791000    2.0050131   -2.1146385 
 2792000    1.7267463   -1.8910266 
 2793000    1.7193189   -1.8850314 
 2794000    1.4079996   -1.6032414 
 2795000     1.724213   -1.9177427 
 2796000    1.7893124   -1.8546518 
 2797000     1.783357   -1.8777531 
 2798000    1.8763196   -2.0019496 
 2799000    1.5683871   -1.6798209 
 2800000    1.8751395   -2.0038227 
 2801000    1.7548577   -1.8781694 
 2802000    1.7207604   -1.8507271 
 2803000     2.249819   -2.3880385 
 2804000    2.0029855   -2.1439052 
 2805000    1.8088716   -1.9385455 
 2806000    1.9966637   -2.1627572 
 2807000    1.7657643    -1.894513 
 2808000    2.1536224   -2.2293987 
 2809000     1.809164   -1.8646009 
 2810000    1.8695589   -1.9020801 
 2811000    1.8935505   -2.1217875 
 2812000    2.1978733    -2.328726 
 2813000    2.0860393    -2.223377 
 2814000    1.9884859   -2.1667939 
 2815000    1.6532123   -1.8181743 
 2816000    1.6188632   -1.6509248 
 2817000    1.6736974   -1.8684245 
 2818000    1.6974374   -1.8020585 
 2819000    1.6666491     -1.86438 
 2820000    1.7652566   -1.8456767 
 2821000    1.6948452   -1.8166776 
 2822000    1.6830154   -1.8291379 
 2823000    1.6043334   -1.7814016 
 2824000    1.5239253   -1.6516437 
 2825000    1.5638266   -1.6564516 
 2826000    1.7226929   -1.8587831 
 2827000    1.5378635    -1.632654 
 2828000    1.4047817   -1.5092139 
 2829000    1.1209953   -1.2669804 
 2830000    1.2627667   -1.4171056 
 2831000    1.4561627   -1.4674071 
 2832000     1.422151   -1.5967662 
 2833000    1.1616695   -1.2340969 
 2834000    1.5459112   -1.7024145 
 2835000    1.0627671   -1.1936275 
 2836000    1.3189049   -1.4791952 
 2837000    1.5717465   -1.6573659 
 2838000    1.3698283   -1.3914873 
 2839000    1.6652414   -1.7995309 
 2840000    1.3589158   -1.4000152 
 2841000    1.5110415   -1.7526148 
 2842000     1.764038   -1.8470385 
 2843000    2.0522954   -2.1866561 
 2844000    1.7531289   -1.7926455 
 2845000    1.4251552   -1.6322151 
 2846000    1.4831974   -1.6804026 
 2847000    1.5147782   -1.5812098 
 2848000    1.3973958   -1.5232832 
 2849000    1.5213075   -1.6384747 
 2850000    1.6402869   -1.8035207 
 2851000    1.4981469    -1.676238 
 2852000    1.5025683   -1.5708251 
 2853000     1.648906   -1.8235789 
 2854000    1.5195952   -1.6065829 
 2855000    1.6935043   -1.8112967 
 2856000    1.7451731   -1.9003562 
 2857000    1.8757293   -2.0486129 
 2858000    2.0108447   -2.1508982 
 2859000    2.1426905   -2.2514569 
 2860000     1.992693   -2.1550611 
 2861000    2.0320866   -2.2024766 
 2862000    1.8412804   -1.9501035 
 2863000    1.7263904   -1.8227539 
 2864000    2.0010748   -2.0762522 
 2865000    2.0500589   -2.2368166 
 2866000    2.2215609   -2.3366868 
 2867000    2.1509705   -2.3000866 
 2868000    1.8725702   -2.0671581 
 2869000    2.0653018   -2.1865935 
 2870000    1.6617298   -1.8195525 
 2871000     1.554399   -1.7114477 
 2872000    1.5039155   -1.6266407 
 2873000    1.6691247    -1.809993 
 2874000    1.9373287    -1.993674 
 2875000    1.8024975    -1.952172 
 2876000    1.7175482   -1.7788323 
 2877000    1.5441138   -1.6937899 
 2878000    1.9200135   -2.0040832 
 2879000    2.1494567   -2.2445689 
 2880000    1.9782546     -2.08449 
 2881000    1.8641406   -2.0239933 
 2882000    1.6038357   -1.7290168 
 2883000    1.4310279   -1.5544508 
 2884000     1.418963   -1.4493073 
 2885000    1.4061507     -1.47891 
 2886000    1.8928622   -2.0338791 
 2887000    1.6993357   -1.8443817 
 2888000    2.0141557   -2.2056301 
 2889000     1.911095    -1.969971 
 2890000    1.5778771   -1.6858748 
 2891000     1.582219    -1.729327 
 2892000    2.0158265   -2.2056034 
 2893000    1.8151378    -1.899787 
 2894000    1.5710677   -1.7477963 
 2895000    1.8045089   -1.9062163 
 2896000     1.817452   -1.9024344 
 2897000    1.5811831   -1.7542386 
 2898000    1.7244125   -1.8310898 
 2899000    1.4371088   -1.5857171 
 2900000    1.4858659   -1.5969988 
 2901000    1.5332654    -1.655078 
 2902000    1.4321304   -1.5891586 
 2903000    2.0793955   -2.2639067 
 2904000    1.6201407   -1.6969655 
 2905000    1.7020539   -1.7575855 
 2906000    1.8496891   -1.9669335 
 2907000    1.2748356   -1.5061296 
 2908000    1.3666524   -1.5511898 
 2909000    1.3621311   -1.4909453 
 2910000    1.5403241   -1.6675897 
 2911000    1.6207846   -1.7551399 
 2912000    1.8156242   -1.9492853 
 2913000    1.7854335    -1.883603 
 2914000    1.7707917   -1.8730692 
 2915000    1.9230898   -2.0264966 
 2916000    1.7720793   -1.9193499 
 2917000    1.7745338   -1.8630095 
 2918000    1.7628995   -1.9416922 
 2919000    1.6546621   -1.8511916 
 2920000    1.6690182    -1.884198 
 2921000    1.5507557   -1.6084061 
 2922000    1.6687084   -1.8663709 
 2923000     1.634504   -1.7667778 
 2924000    1.6289235   -1.7661185 
 2925000    1.8003742   -1.8640035 
 2926000    1.6142996   -1.7021094 
 2927000    1.7968366   -1.9470096 
 2928000    1.4431431   -1.5791947 
 2929000    1.6003039    -1.784958 
 2930000    1.7488324   -1.8778892 
 2931000    1.7190532   -1.8040111 
 2932000    1.6614257   -1.7552346 
 2933000     1.987139   -2.1099921 
 2934000    1.5143796   -1.7020374 
 2935000    1.9817471   -2.0598869 
 2936000    1.7056545   -1.9184646 
 2937000    1.9201468    -2.023443 
 2938000    1.9985421     -2.14705 
 2939000    1.7727041   -1.8238654 
 2940000    1.8685909   -1.9486862 
 2941000    1.6444359   -1.7817597 
 2942000    1.9680757   -2.0333615 
 2943000    2.3530574   -2.4974974 
 2944000    2.4199784   -2.6377729 
 2945000     2.119112   -2.2177341 
 2946000    1.9574736   -2.0222584 
 2947000    1.5622915   -1.7815781 
 2948000    2.1494631   -2.2522816 
 2949000    1.7418532   -1.8472782 
 2950000     1.868581   -1.9173944 
 2951000    1.9227022   -2.0516511 
 2952000    1.7575462    -2.001016 
 2953000    2.3061816   -2.4033112 
 2954000    2.1215678   -2.2453589 
 2955000    2.3288315   -2.5028977 
 2956000    2.2548806   -2.3883348 
 2957000    2.2219441   -2.3273053 
 2958000    2.1906246   -2.3283056 
 2959000    2.3985447   -2.4268942 
 2960000    2.2267098   -2.3912629 
 2961000    2.0480439   -2.1831444 
 2962000    1.8970544   -1.9839599 
 2963000    1.7776516   -1.9939034 
 2964000    1.8957894   -2.0343007 
 2965000     1.954793   -2.0581289 
 2966000    1.9843792   -2.0639409 
 2967000    2.1493816   -2.2823753 
 2968000    2.3107065   -2.4294393 
 2969000    2.0971457   -2.3632045 
 2970000    2.5669367    -2.735812 
 2971000    2.2524584   -2.4546632 
 2972000    2.1378534     -2.17484 
 2973000     1.943839   -2.0456254 
 2974000    1.6130688   -1.7774402 
 2975000    1.7487562   -1.9000067 
 2976000    1.7752246   -1.8246442 
 2977000    1.9942702   -2.1750378 
 2978000    1.7802566   -1.8758874 
 2979000    1.7731701    -1.981288 
 2980000    2.0128854   -2.1146745 
 2981000    2.0341519   -2.2115088 
 2982000    1.7848785   -1.9762109 
 2983000    2.0829478   -2.2812588 
 2984000    1.8419619   -2.0159553 
 2985000    1.7553186   -1.9100998 
 2986000    2.0174546    -2.064548 
 2987000    1.7878817   -1.9249177 
 2988000    1.4777438   -1.7008681 
 2989000    2.0385198    -2.131453 
 2990000    2.1364239   -2.2195276 
 2991000     2.015092     -2.18121 
 2992000    2.0797014   -2.2900696 
 2993000    1.9044822   -1.9613775 
 2994000    2.0476365   -2.2086703 
 2995000    1.8340584   -2.0014149 
 2996000     2.090138   -2.1454242 
 2997000    1.8868484   -1.9740559 
 2998000    1.5909632   -1.6421263 
 2999000    1.8362786   -1.9713265 
 3000000    1.8997364   -2.0695423 
 3001000    1.7846254   -1.9622629 
 3002000    1.6788999   -1.7696049 
 3003000    1.3356057   -1.4472043 
 3004000    1.2989267   -1.4427442 
 3005000    1.7444492   -1.7672759 
 3006000    1.7869256   -1.9285513 
 3007000    1.4980614   -1.6610176 
 3008000    1.5289969   -1.6448049 
 3009000    1.8208579   -1.8948416 
 3010000    2.0079044   -2.1240122 
 3011000     1.961328   -2.1155209 
 3012000    1.9730003   -2.0066802 
 3013000    1.7968764   -1.9195176 
 3014000    2.0765947   -2.2982198 
 3015000    1.6575044   -1.8499175 
 3016000    1.7202885   -1.9007174 
 3017000     1.938735   -2.1224523 
 3018000    1.8840097   -1.9779763 
 3019000    1.8923796   -2.0827688 
 3020000    1.5518154   -1.6751022 
 3021000    1.4653323   -1.6013292 
 3022000    1.5539913    -1.685028 
 3023000    1.4357379     -1.48673 
 3024000     1.691901   -1.7811082 
 3025000      1.86647   -2.0375783 
 3026000     1.628693   -1.8073478 
 3027000    1.5982199   -1.7966934 
 3028000    1.6521991   -1.7401516 
 3029000    1.8433062   -1.9279936 
 3030000    2.0945034   -2.1871194 
 3031000    1.6458064   -1.7296838 
 3032000    1.7182961   -1.8143848 
 3033000    1.5458169   -1.7094714 
 3034000    1.4714138   -1.5938072 
 3035000    1.5862539   -1.7604347 
 3036000    1.7643987   -1.9234345 
 3037000    1.8365684   -1.7731612 
 3038000    1.9844688   -2.0555018 
 3039000    1.7747241   -1.8960535 
 3040000    1.8064326   -1.9202721 
 3041000    2.0101437   -2.1211445 
 3042000    1.7233492   -1.8405134 
 3043000    1.8687642   -2.0628434 
 3044000    1.9240226   -2.0781027 
 3045000    2.1984719   -2.4167038 
 3046000     2.358211    -2.456852 
 3047000    1.8594093   -1.9612837 
 3048000    2.0630755   -2.2100071 
 3049000    1.9143741   -2.1247396 
 3050000    1.8338417   -1.9746102 
 3051000    1.7205389   -1.8424757 
 3052000    2.0017619    -2.092795 
 3053000    1.7901794   -1.9338855 
 3054000    1.6887833   -1.8003347 
 3055000    1.8193239   -1.9266603 
 3056000    2.1211702   -2.1610412 
 3057000     1.939373   -2.0981088 
 3058000    1.9310422   -2.1342247 
 3059000    2.3419827   -2.4282027 
 3060000    1.8221716   -2.0121458 
 3061000    1.8048188   -1.9294641 
 3062000    1.8933014   -2.0710805 
 3063000    1.9137536   -1.9847753 
 3064000    2.0126234   -2.1872746 
 3065000    1.4721937   -1.6142763 
 3066000    1.9262156   -2.0721591 
 3067000     2.163234   -2.2078487 
 3068000    1.8004748   -1.9746754 
 3069000    1.8495188   -1.9736195 
 3070000    1.7065761   -1.8342182 
 3071000    1.4500357   -1.6297635 
 3072000    1.8478021   -2.0008926 
 3073000    1.9392538   -2.0824344 
 3074000    1.7677085   -1.8134458 
 3075000    1.6958335   -1.8533527 
 3076000    1.8125814    -1.920923 
 3077000    1.7872782     -1.84337 
 3078000    2.0604232   -2.2285427 
 3079000    1.8443902   -2.0270777 
 3080000    1.7516812   -1.8537498 
 3081000    1.7599898   -1.9165674 
 3082000    1.8622655   -1.9731892 
 3083000    1.8149744    -1.911607 
 3084000    1.8477568   -1.9225464 
 3085000    1.6628572    -1.800749 
 3086000    1.8809248   -2.0959938 
 3087000    1.9730221   -2.0702682 
 3088000    2.1547212   -2.3068768 
 3089000     2.159337   -2.2764577 
 3090000    1.8615268   -2.0119281 
 3091000    1.7173968    -1.883272 
 3092000    1.7247413   -1.8840079 
 3093000    1.8596964   -2.0197995 
 3094000    1.7667207   -1.9424163 
 3095000    1.9314218    -1.962662 
 3096000     1.851229   -1.9716531 
 3097000    1.7440754   -1.9114308 
 3098000    2.2222923   -2.3150752 
 3099000    1.6431006    -1.709217 
 3100000    1.7205629   -1.8251604 
 3101000    1.7294693   -1.8929802 
 3102000    1.8360232   -1.9170202 
 3103000    1.5375915   -1.5643116 
 3104000    1.5386362   -1.6771108 
 3105000    1.5565549   -1.6716832 
 3106000     1.287942    -1.517502 
 3107000    1.3441762   -1.5346687 
 3108000    1.8580288   -1.9501045 
 3109000    1.8298485   -1.9473335 
 3110000    1.6910362    -1.823877 
 3111000    2.0446484   -2.2260386 
 3112000    1.9106311   -2.0337128 
 3113000     1.930545    -2.075611 
 3114000    1.8972932   -2.1196557 
 3115000     1.908205   -1.9849063 
 3116000    1.9112104   -2.0613896 
 3117000    1.6884766   -1.9092383 
 3118000     2.176437   -2.2801537 
 3119000    1.9834877   -2.1001749 
 3120000    1.9812197   -2.0458354 
 3121000     1.822734   -1.9092431 
 3122000    2.1593602   -2.3557543 
 3123000    1.6689189   -1.7591663 
 3124000    1.8081803   -1.9670832 
 3125000    1.5436232   -1.6561281 
 3126000    1.3941805   -1.5062044 
 3127000    1.3715229   -1.5113127 
 3128000     1.782914   -1.8535377 
 3129000     1.778375   -1.8361456 
 3130000    1.6490747    -1.713378 
 3131000    1.8506392   -1.9182367 
 3132000     1.608029    -1.768884 
 3133000    1.7057295    -1.880284 
 3134000    1.6736853   -1.6756435 
 3135000    1.7208663   -1.8570564 
 3136000    1.9577291   -2.0575207 
 3137000    1.6115977   -1.7613996 
 3138000    1.6119846   -1.6939952 
 3139000    1.3705888   -1.5265164 
 3140000    1.7406792   -1.8478471 
 3141000    1.4581896   -1.5699712 
 3142000    1.4993587   -1.6039958 
 3143000    1.2381382   -1.3869684 
 3144000    1.6034468   -1.7627509 
 3145000    1.4159368   -1.5276061 
 3146000    2.1355224   -2.2935163 
 3147000     1.474853   -1.6067853 
 3148000    1.8760395   -2.0641248 
 3149000    1.7808699   -1.8613781 
 3150000    1.8158364   -1.9352554 
 3151000    1.7414554   -1.9087443 
 3152000    1.4368907   -1.6119434 
 3153000    1.4608496   -1.5206279 
 3154000    1.3748619   -1.4105037 
 3155000    1.3263966   -1.3942585 
 3156000    1.6890834   -1.8717942 
 3157000    2.0325326   -2.1441442 
 3158000     2.331578   -2.4172539 
 3159000    2.1621503   -2.3083592 
 3160000     2.377431   -2.5211523 
 3161000    1.8921548   -2.1137721 
 3162000    2.2731957   -2.3092256 
 3163000    2.4427099   -2.4561318 
 3164000    2.1542444    -2.244405 
 3165000    2.2144317   -2.3314556 
 3166000    1.9322049    -2.015307 
 3167000    1.8419592   -1.9369225 
 3168000     1.737132   -1.9278798 
 3169000    1.4817043   -1.5558047 
 3170000    1.5653636   -1.6450739 
 3171000    1.4519876   -1.5956476 
 3172000    1.8015361   -1.9306331 
 3173000    1.7691173   -1.9612767 
 3174000    1.8867207   -1.8936589 
 3175000    1.9374334   -2.1004985 
 3176000    1.6569581   -1.7969215 
 3177000    1.6477148   -1.8154051 
 3178000    1.9053704   -2.0358343 
 3179000    1.7348357   -1.8587072 
 3180000    1.9626443   -2.0927313 
 3181000    1.5560349   -1.7623561 
 3182000    1.5717906   -1.7257646 
 3183000    1.8106215    -2.001796 
 3184000    1.6402092   -1.7476171 
 3185000     1.405069    -1.465043 
 3186000    1.6341426   -1.8394366 
 3187000    1.8299999   -1.8592492 
 3188000    1.9260298   -2.0800005 
 3189000    2.0595936   -2.1971035 
 3190000    1.8328115   -1.9919058 
 3191000    1.9018277   -2.0440246 
 3192000    2.0814314   -2.2241915 
 3193000    2.2242599   -2.4262718 
 3194000    1.9769345   -2.0161067 
 3195000    1.8018031    -1.844357 
 3196000    1.6212079   -1.6346101 
 3197000    1.4263783   -1.6402765 
 3198000    1.8854096   -2.0064765 
 3199000    1.9286125    -1.980601 
 3200000    1.4616958   -1.5848294 
 3201000    1.7883065   -1.8685855 
 3202000    1.5452281   -1.6859698 
 3203000    2.3059732   -2.4877463 
 3204000    1.8459821   -1.9120885 
 3205000    1.8822481   -1.9499706 
 3206000    1.8150324   -1.9496953 
 3207000    1.4274582   -1.5681284 
 3208000    1.2232113    -1.354845 
 3209000    1.8765319   -1.9731722 
 3210000    2.1043197   -2.2256183 
 3211000    1.7100867   -1.9100052 
 3212000    1.8058061   -1.8969275 
 3213000    2.4269199   -2.5727507 
 3214000    1.8552934   -1.9329676 
 3215000     1.901865   -2.0247193 
 3216000    1.9289705   -1.9959354 
 3217000    1.9419214   -2.0221745 
 3218000    2.0352556     -2.14541 
 3219000    2.1513991   -2.2364037 
 3220000    1.9069121   -1.9808821 
 3221000    2.1590908   -2.2060269 
 3222000     1.904141   -1.9796174 
 3223000     2.278627   -2.3713089 
 3224000    2.0254951   -2.2511124 
 3225000    1.8885695   -2.0212859 
 3226000    1.7766987   -1.8953102 
 3227000    1.7510285   -1.9293212 
 3228000     1.887865   -2.1034427 
 3229000    1.9297357   -2.0839653 
 3230000    1.9204545   -2.0281078 
 3231000    1.6785764    -1.822169 
 3232000    1.5278575   -1.6222355 
 3233000    2.0392829   -2.1694446 
 3234000    2.0140872   -2.2129332 
 3235000    2.2176267   -2.3758645 
 3236000    1.9212645   -2.0834488 
 3237000     2.103242   -2.1739223 
 3238000    2.2487268   -2.3352283 
 3239000    2.2644898   -2.3507482 
 3240000    1.9735022   -2.1371339 
 3241000    1.7927039    -1.963017 
 3242000    1.8194561   -1.9055844 
 3243000    1.7179595   -1.8805804 
 3244000     1.748685   -1.8438948 
 3245000    1.7990961   -1.8873221 
 3246000    1.6332774   -1.8124058 
 3247000    1.7932679   -1.9830317 
 3248000    1.9831088   -2.0707547 
 3249000    1.7771766   -1.8629787 
 3250000    1.7552969    -1.799277 
 3251000     1.705941    -1.780224 
 3252000    1.9491005   -2.1005321 
 3253000     1.974697   -2.1316743 
 3254000    1.9161307   -2.0627329 
 3255000    1.6554841    -1.774817 
 3256000    1.9955839   -2.1381335 
 3257000    1.6832726   -1.8996935 
 3258000    2.2907527   -2.4018355 
 3259000    1.9780816   -2.0145771 
 3260000    1.6785693   -1.7824507 
 3261000     1.843683   -1.8593087 
 3262000    1.6764349    -1.799587 
 3263000    1.5256701   -1.6855181 
 3264000    1.9707428   -2.1281219 
 3265000     1.918305   -2.0069292 
 3266000    1.7036977   -1.8046974 
 3267000    1.7481147   -1.8855174 
 3268000    1.9094916   -2.1109653 
 3269000    1.7159533   -1.8385067 
 3270000    1.9252859   -2.0819397 
 3271000    2.0378968   -2.0601696 
 3272000    2.1546663   -2.2838993 
 3273000    2.0519234   -2.1746001 
 3274000    1.8780789   -1.9717223 
 3275000    1.9820714   -2.1062452 
 3276000    1.8485814   -2.0582605 
 3277000     1.381644   -1.5572476 
 3278000    1.5538194   -1.7171266 
 3279000    1.6007966   -1.7350818 
 3280000    1.7580491   -1.8372148 
 3281000    1.6913666   -1.8315176 
 3282000    1.5747195   -1.6893346 
 3283000    1.8500818   -1.9447156 
 3284000    1.6829989   -1.7837539 
 3285000    1.9682326    -2.076487 
 3286000    1.8761637   -2.0564333 
 3287000    2.0288271   -2.2158969 
 3288000     1.908954   -1.9666161 
 3289000    1.9770089    -2.108288 
 3290000    1.9676626   -2.0443815 
 3291000    1.9227088   -2.0569752 
 3292000    2.0057973   -2.1720784 
 3293000    1.9247133   -2.0415012 
 3294000    1.9746518   -2.1435469 
 3295000     2.040671   -2.1284669 
 3296000    2.1479535   -2.4168758 
 3297000     2.021324   -2.0627376 
 3298000    2.0640448   -2.1505498 
 3299000     2.348668   -2.5235332 
 3300000    2.2947056   -2.3705822 
 3301000    2.0446976   -2.1659467 
 3302000    1.8981438   -2.0192077 
 3303000    2.1940282   -2.3507216 
 3304000    2.2076295   -2.2908464 
 3305000    2.4841383   -2.5665358 
 3306000    2.1625628   -2.3494359 
 3307000    2.0887163   -2.2002213 
 3308000    1.7444422    -1.928357 
 3309000    1.9023627   -2.0995037 
 3310000    2.0160889   -2.1096778 
 3311000    2.2927887   -2.3669327 
 3312000    2.2195718   -2.3141171 
 3313000    1.9387771   -2.0503723 
 3314000    2.1217008   -2.2014992 
 3315000    2.2191406   -2.3144562 
 3316000    2.1000003   -2.1852757 
 3317000    1.8379143   -1.9777594 
 3318000    2.0004703   -2.1913514 
 3319000    2.0772679   -2.2053488 
 3320000     2.117559   -2.2034787 
 3321000    1.9667805    -2.181444 
 3322000    2.0940912   -2.2190708 
 3323000    2.0472186   -2.1688645 
 3324000    2.0803833    -2.212007 
 3325000    2.0205549   -2.0824926 
 3326000    1.9694849    -2.117723 
 3327000    1.4225562   -1.5758165 
 3328000    1.7511188   -1.8170915 
 3329000     2.026952   -2.1276861 
 3330000    2.2813117   -2.4084442 
 3331000     1.992228    -2.087113 
 3332000    1.9201761   -2.0011198 
 3333000    1.9414186   -2.0562172 
 3334000    2.0320954    -2.133048 
 3335000    2.0916789   -2.2471924 
 3336000    1.8650127   -2.0043878 
 3337000    1.8720107   -2.0329727 
 3338000    2.1843365    -2.252916 
 3339000    1.9214277   -2.0920002 
 3340000    2.0069837   -2.1461614 
 3341000    1.9020411   -1.9538476 
 3342000    1.6764614    -1.716761 
 3343000     2.038671   -2.1974616 
 3344000    2.2522756   -2.3210616 
 3345000    2.4042235   -2.5243831 
 3346000    2.2571639   -2.4229037 
 3347000    2.0451145   -2.2186755 
 3348000    1.7154303   -1.7814771 
 3349000    2.0803733   -2.1570806 
 3350000    1.6555997    -1.680519 
 3351000    1.6403506   -1.7984295 
 3352000    1.8815229   -2.0048448 
 3353000    1.9231476   -2.0555643 
 3354000    1.7446852   -1.9543332 
 3355000    1.9123002   -2.0113515 
 3356000    2.0372147   -2.1324195 
 3357000    1.5144926   -1.7912395 
 3358000    1.4717306   -1.5398223 
 3359000    1.4530156   -1.6014396 
 3360000    1.8022863   -1.8994188 
 3361000    1.6636822   -1.7751908 
 3362000    1.7307452   -1.8943008 
 3363000    1.8692888   -2.0656243 
 3364000    1.9407042   -2.1059194 
 3365000    2.3568991   -2.4718042 
 3366000     2.299653   -2.4348687 
 3367000    2.4209708   -2.5520229 
 3368000    2.4447714   -2.5839728 
 3369000    1.8944944   -1.9867457 
 3370000    1.7903057   -1.9129817 
 3371000    1.9895077   -2.1842709 
 3372000    1.8676814   -1.9841796 
 3373000    2.1446614   -2.3365865 
 3374000    1.7302361   -1.8193322 
 3375000    1.6657613   -1.7547041 
 3376000    1.1173567   -1.2060782 
 3377000    1.7696702   -1.8375045 
 3378000    1.7631149   -1.8406836 
 3379000    1.5399214   -1.7313535 
 3380000    1.4543991   -1.5152516 
 3381000    1.6774515   -1.7163927 
 3382000     1.950395   -2.1035914 
 3383000    1.9626458   -2.1258697 
 3384000    1.5575568    -1.693308 
 3385000    1.4255529   -1.6212181 
 3386000    1.8056587    -1.824962 
 3387000    1.7773193   -1.9782072 
 3388000    1.9789659   -2.0596292 
 3389000     1.270751   -1.4287931 
 3390000    1.3161317   -1.4427704 
 3391000    1.6712589   -1.8369482 
 3392000    1.6558215   -1.7190024 
 3393000     1.645604   -1.6950747 
 3394000    1.2240806   -1.4396858 
 3395000    1.3742016   -1.5167594 
 3396000    1.4387639   -1.5793147 
 3397000    1.3615211    -1.487494 
 3398000    1.7534636   -1.9098685 
 3399000    1.9755075   -2.1942612 
 3400000    1.9614314   -2.1245001 
 3401000    2.1343338   -2.3234566 
 3402000    2.3303208   -2.4435036 
 3403000    2.2493917   -2.4414493 
 3404000    1.8325831   -1.9630655 
 3405000    2.0034469   -2.0729141 
 3406000    1.8709556   -1.9694726 
 3407000    1.5000201   -1.7031845 
 3408000    1.4729317   -1.5725834 
 3409000    1.1190249   -1.3037574 
 3410000    1.5715703   -1.6882095 
 3411000    1.8406507   -1.9423156 
 3412000    1.8621868   -1.9555053 
 3413000    1.8026879   -1.8835717 
 3414000    2.0760958   -2.2460805 
 3415000    1.7160085   -1.9039966 
 3416000    1.7785941     -1.92664 
 3417000    1.7082513   -1.8542651 
 3418000    1.7804841   -1.8875577 
 3419000    2.1180923   -2.2034489 
 3420000    1.6115433   -1.7259277 
 3421000    1.5157553   -1.5582137 
 3422000    1.6865012   -1.8668144 
 3423000    1.5963486   -1.7987272 
 3424000    1.5685396   -1.6332035 
 3425000    1.4420217   -1.6262751 
 3426000    1.8148567   -1.8664385 
 3427000    1.8302889   -1.9371475 
 3428000    1.7886826   -1.8759521 
 3429000    1.5704978   -1.7589806 
 3430000    1.9207609   -2.0992585 
 3431000    1.6572004   -1.7742034 
 3432000    1.7037147   -1.7689248 
 3433000    1.4670795    -1.546712 
 3434000    1.6826865   -1.8179059 
 3435000    1.6420905   -1.7396159 
 3436000    1.8896919    -2.029251 
 3437000    1.8507854   -1.9390015 
 3438000    1.9924267   -2.0452403 
 3439000    1.8255996   -1.9259104 
 3440000    2.1090217   -2.2293694 
 3441000    1.8127777   -1.8847097 
 3442000    1.8924955   -1.9746973 
 3443000    2.4364437   -2.5496048 
 3444000    2.0748018     -2.21328 
 3445000    2.0738624   -2.3246791 
 3446000    2.1019395   -2.2358453 
 3447000    2.0306249   -2.2485678 
 3448000    2.1359522   -2.2443891 
 3449000    1.8458326    -1.953599 
 3450000    1.6070558   -1.8365047 
 3451000    1.7020687   -1.8835306 
 3452000    2.1862722   -2.3632667 
 3453000    2.0073782   -2.1884084 
 3454000    1.8332824    -1.986578 
 3455000    1.7875537   -1.8701027 
 3456000    1.8600994   -1.9156312 
 3457000    1.7343013   -1.8117361 
 3458000    1.8063806   -1.9613195 
 3459000    1.9940764   -2.0874377 
 3460000    1.7781311   -1.9430127 
 3461000    1.8302389   -2.0635087 
 3462000    1.7537472   -1.8674461 
 3463000     1.639903   -1.7609038 
 3464000    2.0780285   -2.2364452 
 3465000    1.7933003   -1.9297577 
 3466000    1.6991641   -1.7876316 
 3467000    1.4673623   -1.5539037 
 3468000    1.6155815   -1.8221593 
 3469000    1.7890936    -1.917956 
 3470000    1.6560933    -1.776918 
 3471000    1.5346102   -1.7078244 
 3472000    1.4352338    -1.631138 
 3473000      1.62211   -1.8093973 
 3474000    2.0514718   -2.0995636 
 3475000    2.1847437   -2.3823521 
 3476000    1.9507014    -2.050702 
 3477000    1.8813277   -2.0327402 
 3478000    1.6313114   -1.7972548 
 3479000    1.9510577   -2.0378103 
 3480000    1.9757301   -2.0637104 
 3481000    1.7621982   -1.8781036 
 3482000    1.9285726   -1.9748182 
 3483000    1.9574037   -2.1009463 
 3484000    2.1016925   -2.1878538 
 3485000    2.0817998   -2.1969337 
 3486000    1.7964437   -1.9417653 
 3487000    1.7167941   -1.8731961 
 3488000    1.7822385   -1.9489473 
 3489000     1.512956   -1.6860238 
 3490000    1.4572852   -1.6450691 
 3491000    1.7295321   -1.8699196 
 3492000    1.6223564   -1.7462033 
 3493000    1.7521536   -1.9433958 
 3494000    1.9380473   -2.1537694 
 3495000    1.8440036   -1.9952292 
 3496000    1.9911979   -2.1745161 
 3497000    1.7913005    -1.934737 
 3498000    1.8897935   -2.0087515 
 3499000     1.945564   -2.0095506 
 3500000    2.0277606   -2.1741333 
 3501000    2.0809751   -2.2306192 
 3502000    2.4382765   -2.6394723 
 3503000    1.9715949   -2.1380769 
 3504000     1.970118   -2.1402728 
 3505000    2.0171519   -2.1813462 
 3506000     1.873802   -2.0780039 
 3507000    1.4627906   -1.5602674 
 3508000    1.7493412   -1.8273557 
 3509000    1.3407031    -1.548689 
 3510000    1.4799721   -1.6111712 
 3511000    1.6612736   -1.7480611 
 3512000     1.755096   -1.8490188 
 3513000    1.8929306   -2.0021949 
 3514000    2.0665572   -2.1863687 
 3515000    1.9391843   -2.0481535 
 3516000    2.2668867   -2.4179448 
 3517000    1.8288254   -1.9554223 
 3518000     1.881904   -1.9966993 
 3519000    1.9106136   -2.0243221 
 3520000    1.6243213   -1.7151283 
 3521000    1.6024253   -1.7514756 
 3522000    1.7529376   -1.9200977 
 3523000    1.4285815   -1.5635194 
 3524000    1.6666413   -1.7727889 
 3525000    1.8282905   -1.9284809 
 3526000    1.8211224   -1.8969868 
 3527000    2.0155938   -2.0871289 
 3528000    1.8151613   -1.8981442 
 3529000    1.9144197   -1.9429684 
 3530000    2.0914558   -2.2336106 
 3531000    1.9275665   -2.1686852 
 3532000    2.0056872   -2.1702642 
 3533000    1.9243754   -2.1085319 
 3534000    1.8872872   -1.9837906 
 3535000    1.8249753   -2.0081504 
 3536000    1.7761148   -1.9630777 
 3537000    1.9057456   -2.0505348 
 3538000    1.8992332   -2.1225555 
 3539000    1.7983875   -1.8672665 
 3540000    1.9307386   -2.0355737 
 3541000    1.5575894   -1.7001382 
 3542000    1.7363516   -1.9173506 
 3543000    1.8173341     -2.00261 
 3544000    2.0465479    -2.157517 
 3545000    2.0540815   -2.2279169 
 3546000    1.9210543    -2.015852 
 3547000    2.0513862   -2.1341528 
 3548000    2.0975142   -2.2621714 
 3549000    1.9554157   -2.1328008 
 3550000    1.7420501    -1.918161 
 3551000    1.8015251   -1.9106322 
 3552000    1.7762517   -1.8906419 
 3553000    1.8208061   -1.9555424 
 3554000    1.5072972   -1.6785595 
 3555000    1.9436078   -2.0188366 
 3556000    1.9932318   -2.0923761 
 3557000    2.2375529   -2.2706383 
 3558000    2.2379753   -2.1985743 
 3559000    2.2278835    -2.401937 
 3560000     2.227267   -2.4402468 
 3561000     2.180027   -2.3094358 
 3562000    1.9726664   -2.1496564 
 3563000    1.4707652   -1.5878947 
 3564000    1.6528997   -1.7433456 
 3565000    1.7756312   -1.9360467 
 3566000    1.9120317    -2.108159 
 3567000     1.885099   -1.9897972 
 3568000    1.7107693    -1.854886 
 3569000    2.0941536   -2.1885559 
 3570000    2.0145922   -2.1344301 
 3571000    1.7674852   -1.8760599 
 3572000    1.8203805   -2.0508671 
 3573000    1.6358541   -1.7119469 
 3574000    1.5709363   -1.6366476 
 3575000    1.7690867   -1.8621713 
 3576000    1.7942292   -1.9323707 
 3577000    1.6702809   -1.8948484 
 3578000    1.4394395   -1.6230406 
 3579000    1.4223845    -1.451304 
 3580000    1.6739543   -1.7412042 
 3581000    1.4171749   -1.5552236 
 3582000    1.4156352   -1.5807422 
 3583000    1.6761261   -1.8549037 
 3584000    1.6862092   -1.8506312 
 3585000    1.4986714    -1.738652 
 3586000    1.7381533   -1.8464557 
 3587000    1.6602342   -1.7330048 
 3588000     1.670771   -1.7465787 
 3589000    1.3895127   -1.5572734 
 3590000     1.619234   -1.7184726 
 3591000    1.3451014   -1.4448746 
 3592000    1.7157717   -1.8350339 
 3593000    1.6804115   -1.8940867 
 3594000    1.5478219   -1.6542895 
 3595000    1.5010144   -1.5537904 
 3596000    1.3205462   -1.4465479 
 3597000    1.6847351   -1.8846039 
 3598000    1.5886788   -1.7158161 
 3599000    1.6186748   -1.7419223 
 3600000    1.7455218   -1.8999263 
 3601000    1.7158014   -1.7967509 
 3602000    1.6583622   -1.7981844 
 3603000    1.8902248   -2.0564727 
 3604000    2.1709756   -2.2731099 
 3605000    2.0953529   -2.1857561 
 3606000    2.0970323   -2.2370279 
 3607000     1.763593    -1.892055 
 3608000    1.6177433   -1.7219322 
 3609000    1.4976143   -1.6508828 
 3610000    1.9998493   -2.2168274 
 3611000    1.6294254   -1.8243247 
 3612000    1.6231496   -1.7870722 
 3613000    1.9270179   -2.0654498 
 3614000    1.9591609   -2.1422806 
 3615000    2.0760913   -2.1866139 
 3616000    1.8030311   -1.8507669 
 3617000    2.0088413   -2.0453038 
 3618000    1.7870082   -1.9317633 
 3619000    1.7800558   -1.8684841 
 3620000     1.471513   -1.5791017 
 3621000     1.382575   -1.5190266 
 3622000    1.0153719   -1.1552115 
 3623000     1.447574   -1.4994209 
 3624000    1.5080408   -1.6067097 
 3625000    1.4049855   -1.4668692 
 3626000     1.773712   -1.9089278 
 3627000    1.6375619   -1.7282149 
 3628000    1.7772022    -1.841277 
 3629000    1.7786594   -1.8806676 
 3630000    1.6581091   -1.7565741 
 3631000     1.909949   -1.9043776 
 3632000    1.9950151   -2.1268221 
 3633000    2.0833708   -2.2267492 
 3634000    2.0604051   -2.1138632 
 3635000    1.9814791   -2.0714664 
 3636000    1.7544222   -1.7948637 
 3637000     1.542388   -1.5999616 
 3638000    1.7344377   -1.8581853 
 3639000    1.8700003    -2.067473 
 3640000    1.8460405   -1.9398759 
 3641000    1.6220061   -1.8574652 
 3642000    1.7184719   -1.8207887 
 3643000    1.6550178   -1.8673178 
 3644000    1.7456188   -1.8766888 
 3645000    1.5940646    -1.721282 
 3646000    1.6623386    -1.759849 
 3647000    1.9545263   -2.0293998 
 3648000    1.8710753   -1.9761324 
 3649000    1.7680578   -1.8629939 
 3650000    1.3910729   -1.5308313 
 3651000    1.4348356     -1.58477 
 3652000    1.4903732   -1.6342523 
 3653000    1.7000379   -1.8029205 
 3654000    1.4846563   -1.5592622 
 3655000    1.5893351   -1.7517197 
 3656000    1.4836898    -1.589445 
 3657000    1.6263676   -1.8266256 
 3658000    1.4492696   -1.5656325 
 3659000    1.6113714   -1.8279651 
 3660000    1.7514428   -1.8738751 
 3661000    1.8120645   -1.7706247 
 3662000    1.7642034   -1.8768495 
 3663000    1.7088638   -1.8275223 
 3664000     1.785131   -1.8954474 
 3665000    2.0779013   -2.1904142 
 3666000    1.9836452   -2.0334456 
 3667000    1.5900454   -1.7779758 
 3668000    2.2962722   -2.3763005 
 3669000    1.8179108   -2.0408279 
 3670000     1.909503   -2.0486552 
 3671000    1.7710259   -1.8588927 
 3672000     1.487358   -1.5682633 
 3673000    1.9029814   -1.9334776 
 3674000    1.9193759    -2.040387 
 3675000    1.6461247    -1.765936 
 3676000    1.6788806   -1.7658578 
 3677000    1.7818194   -1.9525033 
 3678000    1.6683726   -1.7873599 
 3679000    1.9022349   -2.0247439 
 3680000    1.6709723   -1.7789093 
 3681000    1.8154238   -1.9974525 
 3682000    1.7482111   -1.8565988 
 3683000     2.312322   -2.4725831 
 3684000    2.0826396   -2.2692399 
 3685000    1.7173194   -1.8675972 
 3686000    1.7029875    -1.866248 
 3687000    1.4628207   -1.6043757 
 3688000    1.8413197   -2.0152625 
 3689000    1.4841408   -1.5159719 
 3690000    1.7191552   -1.7696362 
 3691000    1.8051195   -1.9814108 
 3692000    2.1593438   -2.2956169 
 3693000    1.9084383   -2.0241479 
 3694000    1.5724121   -1.7191071 
 3695000    2.1921029   -2.2343505 
 3696000    1.9673305     -2.04127 
 3697000    2.0573583   -2.1742893 
 3698000    1.6766591    -1.895127 
 3699000    1.9139647    -2.064944 
 3700000    1.8304955   -2.0200014 
 3701000    1.6774003   -1.7349737 
 3702000    1.5877544   -1.7106957 
 3703000    1.5868434   -1.7181274 
 3704000    1.6253249   -1.7490727 
 3705000    2.0884842   -2.1785933 
 3706000    1.9949756   -2.1151338 
 3707000    1.8877186   -1.9508767 
 3708000    1.4518111   -1.5363273 
 3709000    1.6109868   -1.7821305 
 3710000    2.0699992   -2.1361648 
 3711000    1.6739165   -1.8319851 
 3712000    1.8134128   -1.9723259 
 3713000    1.8410976   -1.9471034 
 3714000     1.708868   -1.7951353 
 3715000    2.1966437   -2.2890085 
 3716000    2.0443069   -2.1912658 
 3717000    1.9200283     -1.93304 
 3718000    2.3471444   -2.3901868 
 3719000     1.920562   -2.0715052 
 3720000    1.9713695   -2.0683697 
 3721000    1.6798964    -1.707515 
 3722000    1.7547499   -1.9084807 
 3723000    2.0668777   -2.1589667 
 3724000    1.9859131   -2.0783354 
 3725000    2.2531834    -2.366736 
 3726000    2.0307514   -2.2032751 
 3727000    2.0605746   -2.1618239 
 3728000     1.983343   -2.1398603 
 3729000    2.0731194   -2.2219417 
 3730000    2.1349128   -2.2772794 
 3731000    2.1523177   -2.2607734 
 3732000    2.1118249   -2.2255716 
 3733000     2.070565   -2.2018217 
 3734000    2.1039461   -2.1349181 
 3735000    1.7820997   -1.9143352 
 3736000     1.930583   -2.1484705 
 3737000    2.0682228   -2.2017215 
 3738000    2.1147957   -2.2294658 
 3739000    2.2790774   -2.3730657 
 3740000    1.8732129   -2.0981752 
 3741000    2.0659141   -2.1166797 
 3742000    2.0254354   -2.1897199 
 3743000    2.0586573   -2.0313356 
 3744000    2.1331256   -2.2905158 
 3745000    2.0524575   -2.1019481 
 3746000    1.9855344   -2.1747915 
 3747000     2.074133   -2.1642192 
 3748000    2.0131123   -2.2112213 
 3749000    2.2287129   -2.3215187 
 3750000    2.0752193   -2.1200257 
 3751000    2.0199008   -2.1656934 
 3752000    1.7675773   -1.9468097 
 3753000    2.1234622   -2.2083165 
 3754000    1.9515028   -2.1427581 
 3755000    2.1107402   -2.1388597 
 3756000    1.6531764   -1.7802261 
 3757000    1.4244786   -1.5350801 
 3758000    1.5692136   -1.6676399 
 3759000    1.3371013   -1.4836206 
 3760000    1.6241406   -1.7630514 
 3761000      1.49271   -1.6031767 
 3762000    1.4479503    -1.546392 
 3763000    1.7866727   -1.9400853 
 3764000    1.6144846   -1.7497473 
 3765000    1.7130507   -1.9175454 
 3766000    1.9923248   -1.9825378 
 3767000     1.877207   -1.9167221 
 3768000    1.6606704    -1.722736 
 3769000    2.0223742   -2.1591157 
 3770000     1.853109   -2.0125855 
 3771000    1.7522951   -1.9136703 
 3772000    2.0030407   -2.1486832 
 3773000    1.9636096   -2.0895658 
 3774000    2.0370502   -2.1834695 
 3775000    1.7694372   -1.9160717 
 3776000    2.0560076   -2.1036385 
 3777000    1.8963401   -2.0889003 
 3778000    2.0233008   -2.1396628 
 3779000    1.7249218   -1.8356607 
 3780000    1.8867867   -2.0116982 
 3781000    1.6819615    -1.818423 
 3782000    1.3846187   -1.5053995 
 3783000    1.9432157   -2.0678859 
 3784000    1.7881499    -1.877139 
 3785000    1.6655212   -1.8086935 
 3786000    2.1557296   -2.2382673 
 3787000    1.7263745   -1.8535987 
 3788000    1.9010923   -2.0245935 
 3789000    1.8981484   -1.9904313 
 3790000    1.6839346   -1.7912049 
 3791000     2.166949   -2.3136704 
 3792000    1.8190591   -1.8973272 
 3793000    1.8601943   -1.9994812 
 3794000    1.4984306   -1.6194701 
 3795000    1.3478799   -1.4752911 
 3796000    1.5584334   -1.7611891 
 3797000    1.6781898   -1.8318236 
 3798000    1.7908143   -1.9132609 
 3799000    1.7298152   -1.8569481 
 3800000    1.5968661   -1.7011517 
 3801000    1.8575908   -1.9823385 
 3802000    2.2252218   -2.3784175 
 3803000    2.3834083   -2.5250914 
 3804000    2.2439759   -2.3674452 
 3805000    1.8943507   -2.0930559 
 3806000    2.2015336   -2.3463137 
 3807000    1.9275741   -2.1071704 
 3808000    1.8742653   -2.0763639 
 3809000     2.171165   -2.3007687 
 3810000    2.1588918   -2.2538239 
 3811000    2.1460053   -2.2366674 
 3812000    1.8385154   -1.9052678 
 3813000    1.9743635   -2.1431217 
 3814000    1.7635487   -1.9252504 
 3815000    2.0047057    -2.043145 
 3816000    1.9869084   -2.0599996 
 3817000    1.7143709   -1.8118321 
 3818000    1.7268221   -1.8110771 
 3819000    1.3624514     -1.46615 
 3820000    1.6736933   -1.7992785 
 3821000    1.6033045   -1.7828504 
 3822000    1.6573476   -1.7834839 
 3823000     1.936496   -2.1500344 
 3824000    1.4252377   -1.6164345 
 3825000    1.5528843   -1.6493928 
 3826000    1.4965458   -1.6395873 
 3827000    1.8911574    -1.997238 
 3828000    1.5800636   -1.6554762 
 3829000    1.3710276   -1.6132616 
 3830000    1.9112579   -2.0556074 
 3831000    1.7989992   -1.9167997 
 3832000    2.0690286   -2.1462473 
 3833000    1.9526959   -2.0484913 
 3834000    1.9067481   -2.0314293 
 3835000    2.2760853   -2.3445858 
 3836000    1.9758748   -2.1092954 
 3837000    2.0404682   -2.1535358 
 3838000    1.6999733   -1.8823729 
 3839000    1.7159821   -1.7494577 
 3840000    1.7008996   -1.7558817 
 3841000    1.8028408     -1.89771 
 3842000    1.9838785   -2.1541457 
 3843000    1.7295796   -1.9089954 
 3844000    1.6651054   -1.7417636 
 3845000    1.5595523   -1.6226335 
 3846000    1.6676485   -1.8255761 
 3847000     1.175236   -1.2725438 
 3848000    1.2992428   -1.3747339 
 3849000     1.746552   -1.8422476 
 3850000    1.7588427   -1.8804417 
 3851000     2.029262   -2.1478602 
 3852000    1.7439848   -1.9210356 
 3853000    1.6326025   -1.7387781 
 3854000    1.5763564   -1.6059179 
 3855000    1.8722096   -1.9171939 
 3856000    1.7234204     -1.79592 
 3857000     2.119159   -2.2648167 
 3858000     1.652627    -1.785328 
 3859000    1.4278967   -1.5594705 
 3860000    1.2033811   -1.2607633 
 3861000    1.6762603   -1.7765333 
 3862000    1.6544863   -1.8240366 
 3863000    1.8633668   -1.9697057 
 3864000    2.0705744    -2.154447 
 3865000    2.0286841   -2.1154745 
 3866000    2.1391968   -2.2894129 
 3867000    2.0917689   -2.3300091 
 3868000    2.3129001   -2.4190086 
 3869000    1.8422952   -1.9697934 
 3870000    1.8457571   -2.0383816 
 3871000     1.286697   -1.5052355 
 3872000    1.5085142   -1.6075641 
 3873000    1.6678366   -1.7917508 
 3874000    1.9870168      -2.1297 
 3875000    2.0954474   -2.2489758 
 3876000    2.2852392   -2.4578343 
 3877000    2.0148724   -2.1524411 
 3878000    1.9577427   -2.0142669 
 3879000    1.8889516    -2.045782 
 3880000    1.7908777   -1.9555089 
 3881000     1.802886   -1.9624699 
 3882000    1.7471128   -1.8197388 
 3883000    1.8753109   -2.0182368 
 3884000    2.0052771   -2.1092533 
 3885000    2.0800426   -2.1900392 
 3886000     2.045037   -2.1938921 
 3887000    2.2478736   -2.3151586 
 3888000    1.8674179   -1.9892606 
 3889000    1.8277789   -1.9472153 
 3890000    1.7700837   -1.8329224 
 3891000    1.9022843   -2.0176633 
 3892000    1.9165147   -1.9823975 
 3893000    2.0948031   -2.1762264 
 3894000    1.8132514   -1.9942637 
 3895000    1.8052426   -1.9453956 
 3896000    1.7848936   -1.9511971 
 3897000    1.7585634   -1.8523391 
 3898000    1.6304402   -1.7338188 
 3899000     1.876355    -1.978809 
 3900000    1.7835158   -1.9363847 
 3901000    1.6566964   -1.7646806 
 3902000     1.966352   -2.1060809 
 3903000    1.9789758    -2.099072 
 3904000    1.7741041   -1.9328507 
 3905000      1.80051   -1.8847752 
 3906000    1.7935872   -2.0184582 
 3907000    1.9948331   -2.1673914 
 3908000    1.8173609   -1.9923411 
 3909000    1.9413083   -2.0715732 
 3910000    1.6611899   -1.8219492 
 3911000    1.9334083   -1.9619435 
 3912000    1.7590485   -1.8858909 
 3913000    1.7463124   -1.8905879 
 3914000    1.9204725   -2.0002818 
 3915000    1.8484309   -1.9582923 
 3916000    1.8433959   -1.9866018 
 3917000    1.7367109   -1.8914687 
 3918000    1.5861641   -1.7578744 
 3919000    1.3878595   -1.5094844 
 3920000    1.6830486   -1.7963106 
 3921000    1.9945289   -2.1222237 
 3922000    1.9550876   -2.0450289 
 3923000    2.3057654   -2.4276891 
 3924000    2.1460796   -2.2362015 
 3925000    1.7963729   -2.0464866 
 3926000    1.9372226   -2.1054901 
 3927000    1.8202574   -2.0193905 
 3928000    1.7071934   -1.7468302 
 3929000    2.1269287   -2.2326889 
 3930000    2.0317228   -2.1363498 
 3931000    2.1132725   -2.3236382 
 3932000    2.1576305   -2.2958283 
 3933000    1.8031815   -1.9219283 
 3934000    1.7791277    -1.858183 
 3935000    1.9620618   -2.0911236 
 3936000    1.7739403   -1.9367796 
 3937000    1.9445643   -2.0630668 
 3938000    1.9077981   -1.9543566 
 3939000    2.2100514   -2.3568792 
 3940000    2.1148985    -2.290819 
 3941000    1.8411806   -1.9803152 
 3942000    1.7118002   -1.8332428 
 3943000    1.7124111   -1.8138406 
 3944000    1.5487423    -1.683727 
 3945000     1.326712   -1.5469569 
 3946000    1.4230563    -1.535185 
 3947000    1.8968619   -2.0980871 
 3948000    2.2535089   -2.3136426 
 3949000    1.9203213   -2.0235503 
 3950000    2.0113944   -2.1332036 
 3951000    2.0303958   -2.1382056 
 3952000    2.0964717   -2.2164919 
 3953000    1.9551857   -2.1165556 
 3954000    1.6461054   -1.7643303 
 3955000     1.520266   -1.7004194 
 3956000     1.774173    -1.927031 
 3957000    1.8281181   -2.0332966 
 3958000    2.0680023    -2.146131 
 3959000    2.2379147   -2.3361275 
 3960000    2.0382198   -2.1557461 
 3961000    1.7828823   -1.9779269 
 3962000    1.9348587   -2.0802484 
 3963000    1.7267304   -1.9494429 
 3964000    2.2138994   -2.3820956 
 3965000    2.1436688   -2.2304873 
 3966000    1.9024166   -1.9906174 
 3967000    1.8561531   -1.9571967 
 3968000    1.5744998   -1.7016917 
 3969000    1.7363992   -1.7953408 
 3970000     1.848021   -2.0205638 
 3971000    1.7470724   -1.8956184 
 3972000    2.0952092   -2.2218617 
 3973000    1.9189381   -2.0570442 
 3974000    2.0687529   -2.1538614 
 3975000    1.9275112   -2.1543436 
 3976000    1.6641997   -1.7864208 
 3977000    1.3795712   -1.5779156 
 3978000    1.4416359   -1.5336518 
 3979000    1.6304829   -1.7901618 
 3980000     1.865645   -2.0088882 
 3981000    1.8473675    -1.983278 
 3982000    2.1849914   -2.2398336 
 3983000    2.3889975   -2.4822012 
 3984000    2.1751273    -2.274779 
 3985000    1.8046436    -1.872421 
 3986000    1.9679772   -2.1940695 
 3987000    2.1489364   -2.3353301 
 3988000    1.9561018   -2.0715251 
 3989000    2.0058483   -2.1365796 
 3990000    1.8648765   -1.9670314 
 3991000    1.9341637   -2.0616581 
 3992000    1.8016863   -1.9219166 
 3993000     2.233266   -2.3993363 
 3994000    1.7542795   -1.8663333 
 3995000    1.9646207   -2.0481206 
 3996000    2.0358292   -2.1137617 
 3997000    1.7255893   -1.8582524 
 3998000    1.6162328   -1.7580935 
 3999000    1.4171912    -1.508976 
 4000000    1.6491071   -1.8143901 
 4001000     1.727464   -1.8601947 
 4002000    1.8791035   -1.9467636 
 4003000    2.2089576   -2.2895291 
 4004000    2.3990228   -2.5343685 
 4005000    2.3233841   -2.4585193 
 4006000     2.299178   -2.4788657 
 4007000    2.1268047     -2.32374 
 4008000      1.87985   -2.0196482 
 4009000    2.0621011   -2.2357682 
 4010000    1.6583254   -1.8298587 
 4011000    1.7033811   -1.8638922 
 4012000    1.6108608   -1.6651621 
 4013000    1.7789645   -1.9034413 
 4014000    1.8356675   -1.9942133 
 4015000     1.617314   -1.7817948 
 4016000    2.2020787   -2.3702072 
 4017000    2.3209883   -2.5071854 
 4018000    2.4533682   -2.5909433 
 4019000    2.2524619   -2.3722611 
 4020000    1.8696943   -2.1320139 
 4021000    1.9348992   -2.0932124 
 4022000    1.8371852   -2.0447154 
 4023000    2.0175679    -2.105372 
 4024000    1.9288022   -1.9726867 
 4025000     2.035602   -2.2285734 
 4026000    1.9848644    -2.089448 
 4027000    1.7863073    -2.062141 
 4028000    1.7133954   -1.8429478 
 4029000    1.5323257   -1.6383707 
 4030000    1.8738507   -1.9386988 
 4031000    1.9334332     -2.06719 
 4032000    1.8635213   -1.9524948 
 4033000    1.8025542   -1.9438505 
 4034000    1.8792237   -1.9765055 
 4035000    1.7322144    -1.826731 
 4036000    1.5019566   -1.6343539 
 4037000    2.0225651   -2.0798009 
 4038000    2.0063273   -2.2002973 
 4039000    2.0124793   -2.2153917 
 4040000    1.8616107   -1.9116424 
 4041000    1.9964712   -2.1238827 
 4042000    1.7064839   -1.8160755 
 4043000    1.9725011   -2.1147718 
 4044000    2.0934854   -2.2076487 
 4045000    1.9019554   -2.0201092 
 4046000    1.7997139   -1.9443858 
 4047000    1.8459456   -2.0209808 
 4048000    1.3784969   -1.5430395 
 4049000    1.6269073   -1.7643699 
 4050000    2.0555967   -2.1381908 
 4051000    2.1277217   -2.2296682 
 4052000    2.2540088   -2.3880339 
 4053000    1.7152257   -1.9244566 
 4054000    1.8316043   -1.9663501 
 4055000     2.061965    -2.240255 
 4056000    2.1366834   -2.1863597 
 4057000    1.8935996   -2.0524603 
 4058000    2.0411035   -2.1356808 
 4059000    1.9216542   -1.9966967 
 4060000    2.0415793   -2.2452531 
 4061000    1.9131494   -2.0004957 
 4062000    1.6986867   -1.7228103 
 4063000    1.3446413   -1.4708031 
 4064000     1.931241   -2.0891516 
 4065000    2.2420533   -2.3921906 
 4066000    2.2194484   -2.3082325 
 4067000    1.7586449   -1.9435708 
 4068000    1.9847414   -2.1407174 
 4069000    1.5844986   -1.7319531 
 4070000     1.614357   -1.7246611 
[...]
 4817000    1.2187121   -1.2761559 
 4818000     1.634435   -1.7305821 
 4819000    1.4214318   -1.5378879 
 4820000    1.3625803    -1.400376 
 4821000    1.3855048   -1.5476043 
 4822000    1.4479194   -1.7216323 
 4823000    1.4395166   -1.6167852 
 4824000    1.5629575   -1.7071792 
 4825000    1.5065602   -1.5617995 
 4826000    1.3483729   -1.4887331 
 4827000    1.7318452   -1.8253391 
 4828000    1.5310329   -1.6834598 
 4829000    2.1737843   -2.2719988 
 4830000    1.9191268   -2.0563953 
 4831000    1.6992213   -1.8447698 
 4832000    1.5052535   -1.6206314 
 4833000    1.7345992   -1.8420834 
 4834000    1.7701938   -1.9232603 
 4835000    1.9485816   -2.0489556 
 4836000    1.5518151   -1.7724878 
 4837000    1.8955284   -2.0203939 
 4838000    1.8101681   -1.9153656 
 4839000    1.4595694   -1.6351994 
 4840000    1.5709116   -1.7476869 
 4841000    1.7812855   -1.8386768 
 4842000      1.97464   -2.1707996 
 4843000    2.4211529   -2.6158218 
 4844000    2.3295009   -2.4519358 
 4845000    1.7576494   -1.8872318 
 4846000    1.6115177   -1.6928796 
 4847000    1.8560487   -1.9887787 
 4848000     1.910859   -2.1295113 
 4849000    2.0215882   -2.1857189 
 4850000    1.8542726   -1.9860202 
 4851000    1.9957235   -2.0529303 
 4852000    1.8025426   -1.9876897 
 4853000    1.9764156   -2.0414519 
 4854000    2.0635143   -2.2256152 
 4855000    1.6300206   -1.8418023 
 4856000    1.9996474    -2.144332 
 4857000    1.7907601   -1.8775089 
 4858000    1.5487929   -1.6492666 
 4859000    1.8148393   -1.9489604 
 4860000     2.001788   -2.1776518 
 4861000    2.1018258    -2.252936 
 4862000    2.1262185   -2.2016224 
 4863000    1.7039873   -1.7856953 
 4864000    1.7057257   -1.8398105 
 4865000    1.9690333   -2.0569362 
 4866000    1.8743233   -1.9742618 
 4867000    2.1080492   -2.2388888 
 4868000    1.7663609   -1.9476451 
 4869000      1.72628   -1.9222669 
 4870000    2.0002378   -2.1227628 
 4871000    2.1454628   -2.2731035 
 4872000    2.0174814   -2.1540231 
 4873000    2.0622312   -2.2158685 
 4874000    1.9426513   -2.1150021 
 4875000    2.2308652   -2.3775566 
 4876000    1.9680636   -2.1267304 
 4877000    1.6173657    -1.752863 
 4878000    1.7110623   -1.8709485 
 4879000    1.8312596   -1.9301692 
 4880000    2.2251386   -2.3237866 
 4881000    1.6940941   -1.9138073 
 4882000    1.6178342   -1.8072207 
 4883000    1.9081461   -2.1059141 
 4884000    1.9701343   -2.1299606 
 4885000    1.8276932   -2.0283012 
 4886000    1.5384558   -1.7220546 
 4887000    1.5211805   -1.5904023 
 4888000    1.5430117   -1.6259511 
 4889000    1.1987152   -1.4614919 
 4890000    1.5263236   -1.6804357 
 4891000    1.9143975   -1.9940848 
 4892000    1.8587396   -2.0136519 
 4893000    1.6757733   -1.8971437 
 4894000    1.8258506   -1.9819585 
 4895000     1.905669   -2.0254731 
 4896000    1.8364594   -2.0147001 
 4897000    1.9809807    -2.113062 
 4898000    1.8022459   -1.8521736 
 4899000    1.7561279   -1.9491093 
 4900000     2.112629   -2.2382772 
 4901000    1.8217398   -1.9945307 
 4902000    1.6504183   -1.7794509 
 4903000    1.6247356   -1.6960703 
 4904000     1.832638   -2.0164493 
 4905000    1.9616318   -2.0791041 
 4906000    2.0223317   -2.1267841 
 4907000    2.3103421   -2.3411398 
 4908000    2.1709075   -2.3386162 
 4909000    2.1138911   -2.2941416 
 4910000    2.4484317   -2.6156949 
 4911000    2.2886614   -2.4020508 
 4912000    1.7290215    -1.764032 
 4913000     1.851947   -1.9853129 
 4914000    1.5477572   -1.7092156 
 4915000    2.1404425   -2.2192713 
 4916000    1.7254844   -1.9070623 
 4917000    1.8794999   -2.0248434 
 4918000    2.2524889   -2.4319312 
 4919000    2.1292506   -2.2580976 
 4920000    1.7851212   -1.9389138 
 4921000    1.9710453   -2.0910068 
 4922000     1.786974   -1.8937676 
 4923000    1.7280045   -1.8617429 
 4924000    2.1030041   -2.1174594 
 4925000    1.7257744   -1.8510168 
 4926000     2.179931   -2.3562361 
 4927000    2.2550226   -2.4122287 
 4928000    2.1368074   -2.2695304 
 4929000    2.1147449   -2.2536179 
 4930000    1.9373536   -2.0501328 
 4931000    2.1618987   -2.3371768 
 4932000    1.9426704   -2.1074814 
 4933000    1.9804485   -2.0959448 
 4934000    1.6964296   -1.7926438 
 4935000    2.0351045   -2.1020943 
 4936000    1.6429158   -1.7902371 
 4937000     1.789249   -1.9233535 
 4938000    1.8314195   -2.0648069 
 4939000     1.912152   -1.9903619 
 4940000    1.7554359   -1.8919538 
 4941000    1.5902988   -1.7102941 
 4942000    1.5948491   -1.8125425 
 4943000    1.9661712   -2.0906013 
 4944000    1.8937895   -1.9858539 
 4945000    2.5055514   -2.5135031 
 4946000    2.1038586   -2.3110063 
 4947000     2.080501   -2.2378581 
 4948000     1.925947   -2.1242872 
 4949000    2.0815373   -2.1635024 
 4950000    1.9443728   -2.0527404 
 4951000    2.1930155   -2.3125046 
 4952000    2.2668104   -2.3901246 
 4953000    1.9845829   -2.0994155 
 4954000    2.1908497   -2.2707199 
 4955000    2.1440451   -2.2826553 
 4956000      2.17903   -2.2461215 
 4957000    1.9411407   -2.0308867 
 4958000     1.678605   -1.7896805 
 4959000    2.1512618   -2.3453987 
 4960000    1.9215845   -1.9564873 
 4961000    1.8946997   -1.9755696 
 4962000    1.6282969   -1.8027357 
 4963000    2.3324369   -2.4471699 
 4964000    2.0587466   -2.1598027 
 4965000    2.0827816   -2.1854188 
 4966000     2.369859   -2.4459387 
 4967000    2.2582329   -2.3603507 
 4968000    1.8110777   -1.9089621 
 4969000      1.88499   -2.0090355 
 4970000     2.177626   -2.2722831 
 4971000     2.372381   -2.4457064 
 4972000    2.2991774   -2.4823237 
 4973000    2.0705785   -2.1850408 
 4974000    2.0359629   -2.1937612 
 4975000    2.4377565   -2.5658705 
 4976000    2.3952604   -2.5169989 
 4977000    2.4324209   -2.5167214 
 4978000    2.2909642   -2.4890398 
 4979000    2.0330346   -2.0699374 
 4980000     2.409741   -2.5620721 
 4981000    2.1541361   -2.2822204 
 4982000    1.9982508   -2.1293544 
 4983000    2.0763127   -2.2107818 
 4984000    1.9011241   -2.1274396 
 4985000    2.3219115    -2.437465 
 4986000    2.5001871   -2.5203961 
 4987000    2.2429934   -2.3551842 
 4988000    2.2478617   -2.4098169 
 4989000    2.1975844   -2.2809305 
 4990000    1.9929394   -2.1376195 
 4991000    2.0614526   -2.2143556 
 4992000    2.0447723   -2.1897265 
 4993000     2.140485   -2.2122046 
 4994000     2.396716   -2.5324689 
 4995000    2.3891448   -2.5146263 
 4996000    2.2813038    -2.495121 
 4997000    2.1385798   -2.3105851 
 4998000    2.1235299    -2.271557 
 4999000    1.9452351   -2.0551861 
 5000000    1.9840693   -2.1543477 
 5001000    2.2814211    -2.406299 
 5002000    1.6571263    -1.829655 
 5003000    1.7909461   -1.9810614 
 5004000    2.2639516   -2.3318538 
 5005000    2.1850362   -2.3627508 
 5006000     2.223224   -2.4117301 
 5007000     2.207792   -2.3373553 
 5008000    1.7782269   -1.7974734 
 5009000    1.7069521   -1.8792327 
 5010000     2.085851   -2.1326868 
 5011000    2.2164267   -2.3011053 
 5012000     2.269223   -2.4738859 
 5013000    1.6402396   -1.8424584 
 5014000    1.8421574   -2.0104594 
 5015000    1.5478491   -1.6690127 
 5016000    1.8561148   -1.8584246 
 5017000    1.7219284   -1.8568062 
 5018000    1.7576008   -1.8593183 
 5019000    1.5142209    -1.666485 
 5020000    1.7774792   -1.9555977 
 5021000    1.8761894   -2.1311763 
 5022000    1.7315595   -1.8547711 
 5023000    1.7185024   -1.6897406 
 5024000    1.9935635   -2.0919828 
 5025000     1.973716   -2.2315212 
 5026000    2.0424612   -2.1165058 
 5027000     2.356465   -2.5156463 
 5028000    2.2243019    -2.366576 
 5029000     2.305685    -2.459287 
 5030000    2.2743949   -2.4203192 
 5031000    2.0226923   -2.1470236 
 5032000    1.9870562   -2.1247758 
 5033000    2.1026783   -2.2459403 
 5034000     2.385195    -2.507198 
 5035000    2.4502452   -2.5504926 
 5036000    2.2566216   -2.2958247 
 5037000    2.0324423   -2.1500106 
 5038000    1.8535068   -1.9934696 
 5039000    1.8926049   -2.0812814 
 5040000    1.9980288   -2.1149869 
 5041000     1.979324    -2.106162 
 5042000    1.7430394    -1.910455 
 5043000    2.1205255    -2.243779 
 5044000    2.3625355   -2.4697015 
 5045000     2.056002   -2.2258925 
 5046000    1.7629219   -1.8906366 
 5047000    1.7230227   -1.6996021 
 5048000    1.9237222    -2.095572 
 5049000    1.8720268   -1.9992401 
 5050000    1.5727663   -1.6997798 
 5051000     1.661448   -1.8015039 
 5052000    1.9748046   -2.0583415 
 5053000    2.0144294   -2.2269118 
 5054000     2.070646   -2.2245959 
 5055000    1.8606377   -2.0086517 
 5056000    1.8464108   -1.9745163 
 5057000    1.9913837    -2.077725 
 5058000    1.8786978   -2.0266469 
 5059000    1.9082875   -2.0253285 
 5060000    1.8111975   -1.8905451 
 5061000    1.9295699   -2.0376221 
 5062000    1.7784061   -1.8832863 
 5063000    1.7570982   -1.8468671 
 5064000    1.8833663   -1.9903501 
 5065000    2.0063922   -2.0952658 
 5066000    1.8705564   -1.9522357 
 5067000    1.8199293   -2.0055807 
 5068000    1.7921282   -1.8891993 
 5069000    1.9463195   -2.0745018 
 5070000    1.7299274   -1.8311917 
 5071000    1.7605931   -1.9008405 
 5072000     2.079125   -2.1962395 
 5073000    2.1326956   -2.2841276 
 5074000    1.7465343   -1.9831339 
 5075000    1.8805361   -2.1076951 
 5076000    1.8845405   -2.0112068 
 5077000     2.125087   -2.2655931 
 5078000    2.1005287   -2.3173833 
 5079000    1.8142555   -1.9636139 
 5080000    2.1882839   -2.3617375 
 5081000    1.8778715   -2.0210631 
 5082000    1.6184115   -1.7724097 
 5083000      1.62952   -1.7427551 
 5084000    1.9996925   -2.1117255 
 5085000    1.8276488   -2.0009456 
 5086000    1.9266611   -2.0437981 
 5087000    1.5326708   -1.6090647 
 5088000    1.9766164   -2.0312307 
 5089000    2.0282924   -2.1663865 
 5090000    1.6928344   -1.7980777 
 5091000    1.6675787   -1.7879085 
 5092000    1.8501553    -1.953254 
 5093000    1.6807141   -1.8593689 
 5094000    2.1777496   -2.2663389 
 5095000    1.9520268   -2.0078534 
 5096000    1.9397932   -2.1025847 
 5097000    2.1579516   -2.3107569 
 5098000    2.3585865   -2.5124764 
 5099000    2.0127879   -2.1534797 
 5100000    1.7990692   -1.8999773 
 5101000    1.9248673    -2.023273 
 5102000    1.9840935   -2.0755818 
 5103000    1.9038226   -1.9859161 
 5104000     1.828106   -1.8789894 
 5105000    2.1191096   -2.2464609 
 5106000    2.1412808   -2.2810665 
 5107000    1.6731008   -1.8256319 
 5108000    1.8490055   -2.0184302 
 5109000    1.6630079   -1.7289662 
 5110000    1.9108035   -2.0257787 
 5111000    1.9283589   -2.0312865 
 5112000    2.0880002   -2.1953188 
 5113000     2.035631    -2.133337 
 5114000    1.8106425   -1.9524519 
 5115000     2.281583   -2.3496548 
 5116000    2.0194434    -2.130932 
 5117000    1.7386712   -1.8482496 
 5118000    1.9418617   -2.0458003 
 5119000    1.8233897   -2.0037925 
 5120000    1.9691286    -2.107355 
 5121000    2.0187657   -2.1350158 
 5122000    1.7122952   -1.8007161 
 5123000    2.1045186    -2.220498 
 5124000    1.8336547   -1.9830097 
 5125000    1.9548148   -2.1361419 
 5126000    1.9962951   -2.1454403 
 5127000    2.2520684   -2.3781356 
 5128000    1.9961668   -2.1764604 
 5129000    2.1255412   -2.3423359 
 5130000    1.7665817   -1.8822706 
 5131000    1.7840467   -1.8360537 
 5132000    1.5616685   -1.7799003 
 5133000    1.7825998   -1.9360286 
 5134000    1.8976176   -2.0238317 
 5135000    1.6952809   -1.8052961 
 5136000    1.7430797   -1.9176655 
 5137000    1.7360094   -1.9400437 
 5138000    1.8858352   -2.0182335 
 5139000    2.2349141   -2.3996491 
 5140000    2.0068384   -2.1641783 
 5141000    2.1172075    -2.213071 
 5142000    2.0482899   -2.2581615 
 5143000    2.3277275   -2.4441692 
 5144000    1.9400215    -2.137979 
 5145000     1.784477   -2.0528549 
 5146000    1.6482426   -1.7820818 
 5147000    1.8590445   -2.0582926 
 5148000    1.8558277   -1.9394079 
 5149000    2.1706055   -2.3542951 
 5150000    1.8499552   -1.9800354 
 5151000     1.935323   -1.9657976 
 5152000    1.8849628    -1.950839 
 5153000    1.7215035   -1.9219376 
 5154000    2.0114166   -2.0592599 
 5155000     2.145886   -2.2688004 
 5156000    1.8878218   -1.9933253 
 5157000    1.8359431   -1.9681045 
 5158000    1.9490082   -2.0631768 
 5159000    1.8643512   -2.0522582 
 5160000    1.6099234   -1.7798784 
 5161000    1.8443219    -1.963589 
 5162000    2.1252293   -2.2742764 
 5163000    2.1345584   -2.2973973 
 5164000    2.1099195    -2.263064 
 5165000    2.2485416   -2.4357191 
 5166000    2.1613292   -2.3426616 
 5167000    2.3505144   -2.5024213 
 5168000    2.0558993   -2.1808023 
 5169000    1.9901269   -2.1541656 
 5170000    1.8802063    -1.916483 
 5171000    2.1297715   -2.2759483 
 5172000    2.0401929     -2.14763 
 5173000    2.1301587   -2.1875227 
 5174000     2.162622    -2.347785 
 5175000    1.6261575   -1.7282655 
 5176000    1.6194207   -1.7358592 
 5177000    2.0771427   -2.2167295 
 5178000    1.9590844   -2.0596876 
 5179000    1.8280877   -1.9777383 
 5180000    1.6733286   -1.7940115 
 5181000    1.5291916   -1.6608017 
 5182000    1.8992694   -1.9413806 
 5183000    1.8467276   -1.9475789 
 5184000    1.2694363   -1.4563581 
 5185000     1.673847   -1.7278473 
 5186000    1.4566412   -1.5990141 
 5187000    1.2947539   -1.3584839 
 5188000    1.6629906   -1.7261641 
 5189000    1.7437953   -1.8634186 
 5190000     2.062982   -2.1325063 
 5191000    2.1301084   -2.2514663 
 5192000    1.8258314   -2.0149001 
 5193000    1.9475274   -1.9799901 
 5194000    1.9819123   -2.1159676 
 5195000    2.0484407   -2.1834843 
 5196000    2.3739674   -2.4726368 
 5197000    2.4615813   -2.6052543 
 5198000    2.1470257   -2.3461751 
 5199000    2.0544674   -2.1764443 
 5200000    1.8661146   -1.9858149 
 5201000    1.8564738   -1.9504723 
 5202000     1.831028   -1.8764637 
 5203000    1.7114762   -1.8482408 
 5204000    1.5243856   -1.6055505 
 5205000    1.3404564   -1.4134583 
 5206000    1.7779117   -1.9346661 
 5207000    1.8384456   -1.9630968 
 5208000    1.9349936   -2.1026412 
 5209000    1.8978435   -2.0245799 
 5210000    2.3072735   -2.4005017 
 5211000    1.9492517   -2.1407921 
 5212000    1.8296516   -2.0620261 
 5213000    1.8776665   -1.9786084 
 5214000    1.6924991   -1.8336389 
 5215000    2.1553339   -2.3745688 
 5216000    1.7836407   -1.8675536 
 5217000    1.9240871   -2.0207809 
 5218000    1.9874185   -2.1495921 
 5219000    2.5007751   -2.5225675 
 5220000    2.4005827   -2.4768254 
 5221000    1.8269902   -1.9447051 
 5222000    1.8579112   -2.0621723 
 5223000    2.1892916   -2.2737324 
 5224000    2.1688553   -2.3321359 
 5225000    2.0465755   -2.1745323 
 5226000    2.0650085   -2.2281309 
 5227000    2.0648288   -2.2421004 
 5228000    2.0009543   -2.0975143 
 5229000    2.1800183   -2.2299519 
 5230000    2.1824022   -2.2738961 
 5231000    1.8549222   -1.9760942 
 5232000    2.0667892   -2.1449157 
 5233000    1.8029057    -1.879243 
 5234000    1.6741869   -1.7764694 
 5235000    1.7372695   -1.8537808 
 5236000    1.7414858   -1.9021369 
 5237000     1.811334   -1.8942088 
 5238000    1.9040315   -2.0124417 
 5239000    2.3897827   -2.4905858 
 5240000    1.9796661   -2.0859346 
 5241000    1.9044391   -1.9562818 
 5242000    2.0161826   -2.1858442 
 5243000    1.8212809   -1.8799117 
 5244000    1.5008675   -1.6877746 
 5245000    1.9143413   -2.0788035 
 5246000     1.641755   -1.6531712 
 5247000    1.4006525   -1.4674504 
 5248000    1.2440719   -1.4522008 
 5249000    1.6312326    -1.646278 
 5250000    1.5773779   -1.6573231 
 5251000    1.5871556   -1.6439882 
 5252000    1.5905654   -1.7464024 
 5253000    1.8925449   -1.9949654 
 5254000    1.7779024   -1.9390677 
 5255000    2.0577153   -2.1401101 
 5256000    2.1222638   -2.1704993 
 5257000    2.3395678   -2.4180942 
 5258000    1.9851952    -2.088174 
 5259000    2.1011408   -2.1407342 
 5260000    1.8398325   -1.9078036 
 5261000    1.6172927   -1.7762756 
 5262000    1.6626213   -1.7878592 
 5263000    1.6912588   -1.8385284 
 5264000    1.6108514    -1.727277 
 5265000    1.4885169   -1.5808232 
 5266000    1.7121164   -1.7704996 
 5267000    1.3901987   -1.4363511 
 5268000    1.5313882   -1.5615031 
 5269000    1.6386423   -1.6673258 
 5270000    1.7996167   -1.9817909 
 5271000    1.9746066   -2.0742276 
 5272000    1.7429652   -1.8295096 
 5273000    1.9143376   -1.9623318 
 5274000     1.787285   -1.8994526 
 5275000    1.4971992   -1.6482862 
 5276000    1.6538197    -1.750413 
 5277000    1.6275602   -1.7757014 
 5278000    1.7199796   -1.8604933 
 5279000    1.9708276   -2.0775282 
 5280000    1.5438035   -1.6756925 
 5281000    1.5872719   -1.7682871 
 5282000    1.8111249   -1.9348438 
 5283000     1.534583   -1.6129717 
 5284000    1.5667876    -1.743333 
 5285000    1.4320083   -1.6042436 
 5286000    1.5108828   -1.5731514 
 5287000    1.6576187   -1.6716615 
 5288000    1.5933189   -1.6553967 
 5289000    1.5910251   -1.7304482 
 5290000    1.6393476   -1.7024341 
 5291000    1.6625125   -1.8188145 
 5292000    1.3509162   -1.4815154 
 5293000    1.5223929   -1.7084583 
 5294000    1.6198117   -1.6914089 
 5295000    1.5568702   -1.7560982 
 5296000    1.3629177   -1.5704702 
 5297000    1.5472111   -1.7139049 
 5298000    1.3474607   -1.3972982 
 5299000    1.4310498   -1.5411051 
 5300000    1.5188206   -1.6964441 
 5301000    1.6925465    -1.784143 
 5302000    1.8347837   -1.9616998 
 5303000    1.5360956   -1.6758056 
 5304000    1.6043664   -1.6452752 
 5305000    1.9321448   -2.0051066 
 5306000    1.9114957    -2.164304 
 5307000     1.702531   -1.8001227 
 5308000    1.8031997   -1.8317273 
 5309000    1.7704191   -1.8338725 
 5310000    1.5919957   -1.7404724 
 5311000    1.9824649   -2.1223502 
 5312000    1.7607777   -1.8879152 
 5313000    1.9801938   -2.1610172 
 5314000    1.7625501   -1.9365963 
 5315000    1.8318457    -2.031413 
 5316000    1.7963004   -2.0170315 
 5317000    1.9437412   -2.0368662 
 5318000    2.0304461   -2.0977029 
 5319000    2.1180987   -2.2502464 
 5320000    2.0561243   -2.2014533 
 5321000    2.0092524   -2.0919396 
 5322000     1.744374   -1.8560288 
 5323000    1.8002618   -1.9745139 
 5324000    1.9606214   -2.2555441 
 5325000    1.8319937   -2.0275911 
 5326000    1.6653337   -1.8577036 
 5327000    1.8054815   -1.9539445 
 5328000    1.7205003   -1.8521044 
 5329000    1.6454181   -1.7927584 
 5330000    1.3322151   -1.4713402 
 5331000    1.8316656   -1.8821486 
 5332000    1.6866334   -1.8742924 
 5333000    1.9556511   -2.0767163 
 5333334    1.9702322   -2.1233043 
Loop time of 597361 on 8 procs for 3333334 steps with 9487 atoms

Performance: 0.723 ns/day, 33.187 hours/ns, 5.580 timesteps/s
97.2% CPU use with 8 MPI tasks x no OpenMP threads

MPI task timing breakdown:
Section |  min time  |  avg time  |  max time  |%varavg| %total
---------------------------------------------------------------
Pair    | 53104      | 56671      | 60346      |1343.6 |  9.49
Bond    | 102.47     | 110.29     | 115.83     |  43.1 |  0.02
Kspace  | 87402      | 93819      | 1.0016e+05 |1669.7 | 15.71
Neigh   | 9162.1     | 9170.9     | 9182       |   7.1 |  1.54
Comm    | 744.82     | 787.68     | 821.95     | 118.3 |  0.13
Output  | 0.19578    | 0.36188    | 1.2416     |  55.4 |  0.00
Modify  | 4.3396e+05 | 4.3671e+05 | 4.3947e+05 | 296.8 | 73.11
Other   |            | 95.29      |            |       |  0.02

Nlocal:    1185.88 ave 1226 max 1166 min
Histogram: 2 0 3 0 2 0 0 0 0 1
Nghost:    9934 ave 9977 max 9883 min
Histogram: 1 0 2 1 0 0 0 2 0 2
Neighs:    1.05084e+06 ave 1.08768e+06 max 1.03326e+06 min
Histogram: 2 1 2 1 0 1 0 0 0 1

Total # of neighbors = 8406727
Ave neighs/atom = 886.131
Ave special neighs/atom = 1.60325
Neighbor list builds = 253626
Dangerous builds = 0
#write_restart KOHrestart
#write_dump all custom KOHxyz.xyz id type x y z q



Total wall time: 166:01:39
